 Q-Chem 5.2 (devel), Q-Chem, Inc., Pleasanton, CA (2019)
 Q-Chem 5.2.2 for Intel X86 EM64T Linux

User input:
--------------------------------------------------------------
$molecule
0 1
C    0.58000    11.83000   20.41000
C    0.42000    10.41000   19.83000
C    1.53000    9.53000    20.44000
C    1.44000    9.53000    21.98000
C    1.37000    10.92000   22.65000
C    0.42000    11.90000   21.94000
H    1.49000    8.50000    20.05000
H    -0.52000   10.00000   20.20000
H    1.40000    12.47000   20.08000
H    -0.28000   12.43000   20.08000
H    0.54000    9.00000    22.28000
H    2.32000    8.99000    22.34000
H    1.27000    10.83000   23.73000
H    2.37000    11.32000   22.50000
H    -0.63000   11.62000   22.11000
H    0.56000    12.91000   22.33000
H    2.51000    9.84000    20.07000
N    0.54000    10.41000   18.38000
H    1.39000    10.78000   17.99000
C    -0.47000   10.09000   17.50000
H    -0.16000   10.30000   16.46000
O    -1.56000   9.66000    17.84000
$end

$rem
JOBTYPE  OPT
METHOD  B3LYP
BASIS  6-31+G(D)
SYMMETRY  FALSE
SYM_IGNORE  FALSE
MEM_TOTAL  8000
MEM_STATIC  2000
MAX_SUB_FILE_NUM  16000
BASIS_LIN_DEP_THRESH  6
THRESH  14
SCF_CONVERGENCE  8
GEN_SCFMAN  TRUE
SCF_GUESS  SAD
FD_MAT_VEC_PROD  FALSE
XC_GRID  000099000590
NL_GRID  1
MAX_SCF_CYCLES  200
GEOM_OPT_TOL_GRADIENT  100
GEOM_OPT_TOL_DISPLACEMENT  100
GEOM_OPT_TOL_ENERGY  10
SOLVENT_METHOD       PCM
$end

$PCM
THEORY                     CPCM
METHOD                     SWIG
SOLVER                     INVERSION
HPOINTS                    302
HEAVYPOINTS                302
$END

$SOLVENT
DIELECTRIC                 78.40
$END

--------------------------------------------------------------

   13    -404.5828009903      5.60e-09  Convergence criterion met
 Total energy in the final basis set =     -404.5828009903
   12    -404.5936065420      3.06e-09  Convergence criterion met
 Total energy in the final basis set =     -404.5936065420
   12    -404.5993911141      3.14e-09  Convergence criterion met
 Total energy in the final basis set =     -404.5993911141
   12    -404.6012617816      3.31e-09  Convergence criterion met
 Total energy in the final basis set =     -404.6012617816
   12    -404.6021170604      3.43e-09  Convergence criterion met
 Total energy in the final basis set =     -404.6021170604
   12    -404.6022553824      3.50e-09  Convergence criterion met
 Total energy in the final basis set =     -404.6022553824
   12    -404.6022665369      3.47e-09  Convergence criterion met
 Total energy in the final basis set =     -404.6022665369
   12    -404.6022689248      3.46e-09  Convergence criterion met
 Total energy in the final basis set =     -404.6022689248
   12    -404.6022695955      3.47e-09  Convergence criterion met
 Total energy in the final basis set =     -404.6022695955
   12    -404.6022696756      3.47e-09  Convergence criterion met
 Total energy in the final basis set =     -404.6022696756
 Final energy is   -404.602269675642
 **  OPTIMIZATION CONVERGED  **
 Total job time:  732.77s(wall), 10183.81s(cpu)
        *  Thank you very much for using Q-Chem.  Have a nice day.  *

User input: 2 of 2

                  Welcome to Q-Chem
     A Quantum Leap Into The Future Of Chemistry

 Q-Chem 5.2 (devel), Q-Chem, Inc., Pleasanton, CA (2019)

 Yihan Shao,  Zhengting Gan,  E. Epifanovsky,  A. T. B. Gilbert,  M. Wormit,
 J. Kussmann,  A. W. Lange,  A. Behn,  Jia Deng,  Xintian Feng,  D. Ghosh,
 M. Goldey,  P. R. Horn,  L. D. Jacobson,  I. Kaliman,  T. Kus,  A. Landau,
 Jie Liu,  E. I. Proynov,  R. M. Richard,  R. P. Steele,  E. J. Sundstrom,
 H. L. Woodcock III,  P. M. Zimmerman,  D. Zuev,  B. Alam,  B. Albrecht,
 E. Alguire,  S. A. Baeppler,  D. Barton,  Z. Benda,  Y. A. Bernard,
 E. J. Berquist,  K. B. Bravaya,  H. Burton,  K. Carter-Fenk,  D. Casanova,
 Chun-Min Chang,  Yunqing Chen,  A. Chien,  K. D. Closser,  M. P. Coons,
 S. Coriani,  S. Dasgupta,  A. L. Dempwolff,  M. Diedenhofen,  Hainam Do,
 R. G. Edgar,  Po-Tung Fang,  S. Faraji,  S. Fatehi,  Qingguo Feng,
 J. Fosso-Tande,  J. Gayvert,  Qinghui Ge,  A. Ghysels,  G. Gidofalvi,
 J. Gomes,  J. Gonthier,  A. Gunina,  D. Hait,  M. W. D. Hanson-Heine,
 P. H. P. Harbach,  A. W. Hauser,  M. F. Herbst,  J. E. Herr,
 E. G. Hohenstein,  Z. C. Holden,  Kerwin Hui,  B. C. Huynh,  T.-C. Jagau,
 Hyunjun Ji,  B. Kaduk,  K. Khistyaev,  Jaehoon Kim,  P. Klunzinger,  K. Koh,
 D. Kosenkov,  L. Koulias,  T. Kowalczyk,  C. M. Krauter,  A. Kunitsa,
 Ka Un Lao,  A. Laurent,  K. V. Lawler,  Joonho Lee,  D. Lefrancois,
 S. Lehtola,  D. S. Levine,  Yi-Pei Li,  You-Sheng Lin,  Fenglai Liu,
 Kuan-Yu Liu,  E. Livshits,  M. Loipersberger,  A. Luenser,  P. Manohar,
 E. Mansoor,  S. F. Manzer,  Shan-Ping Mao,  Yuezhi Mao,  N. Mardirossian,
 A. V. Marenich,  T. Markovich,  L. A. Martinez-Martinez,  S. A. Maurer,
 N. J. Mayhall,  S. C. McKenzie,  J.-M. Mewes,  P. Morgante,  A. F. Morrison,
 J. W. Mullinax,  K. Nanda,  T. S. Nguyen-Beck,  R. Olivares-Amaya,
 J. A. Parkhill,  S. K. Paul,  F. Pavosevic,  Zheng Pei,  T. M. Perrine,
 F. Plasser,  P. Pokhilko,  S. Prager,  A. Prociuk,  E. Ramos,  B. Rana,
 D. R. Rehn,  F. Rob,  M. Scheurer,  M. Schneider,  N. Sergueev,
 S. M. Sharada,  S. Sharma,  D. W. Small,  T. Stauch,  C. J. Stein,
 T. Stein,  Yu-Chuan Su,  S. P. Veccham,  Zhen Tao,  A. J. W. Thom,
 A. Tkatchenko,  T. Tsuchimochi,  N. M. Tubman,  L. Vogt,  M. L. Vidal,
 O. Vydrov,  M. A. Watson,  J. Wenzel,  M. de Wergifosse,  T. A. Wesolowski,
 A. White,  J. Witte,  A. Yamada,  Jun Yang,  K. Yao,  S. Yeganeh,
 S. R. Yost,  Zhi-Qiang You,  A. Zech,  Igor Ying Zhang,  Xing Zhang,
 Yan Zhao,  Ying Zhu,  B. R. Brooks,  G. K. L. Chan,  C. J. Cramer,
 M. S. Gordon,  W. J. Hehre,  A. Klamt,  M. W. Schmidt,  C. D. Sherrill,
 D. G. Truhlar,  A. Aspuru-Guzik,  R. Baer,  A. T. Bell,  N. A. Besley,
 Jeng-Da Chai,  A. E. DePrince, III,  R. A. DiStasio Jr.,  A. Dreuw,
 B. D. Dunietz,  T. R. Furlani,  Chao-Ping Hsu,  Yousung Jung,  Jing Kong,
 D. S. Lambrecht,  WanZhen Liang,  C. Ochsenfeld,  V. A. Rassolov,
 L. V. Slipchenko,  J. E. Subotnik,  T. Van Voorhis,  J. M. Herbert,
 A. I. Krylov,  P. M. W. Gill,  M. Head-Gordon

 Contributors to earlier versions of Q-Chem not listed above:
 R. D. Adamson,  B. Austin,  J. Baker,  G. J. O. Beran,  K. Brandhorst,
 S. T. Brown,  E. F. C. Byrd,  A. K. Chakraborty,  C.-L. Cheng,
 Siu Hung Chien,  D. M. Chipman,  D. L. Crittenden,  H. Dachsel,
 R. J. Doerksen,  A. D. Dutoi,  L. Fusti-Molnar,  W. A. Goddard III,
 A. Golubeva-Zadorozhnaya,  S. R. Gwaltney,  G. Hawkins,  A. Heyden,
 S. Hirata,  G. Kedziora,  F. J. Keil,  C. Kelley,  Jihan Kim,  R. A. King,
 R. Z. Khaliullin,  P. P. Korambath,  W. Kurlancheek,  A. M. Lee,  M. S. Lee,
 S. V. Levchenko,  Ching Yeh Lin,  D. Liotard,  R. C. Lochan,  I. Lotan,
 P. E. Maslen,  N. Nair,  D. P. O'Neill,  D. Neuhauser,  E. Neuscamman,
 C. M. Oana,  R. Olson,  B. Peters,  R. Peverati,  P. A. Pieniazek,
 Y. M. Rhee,  J. Ritchie,  M. A. Rohrdanz,  E. Rosta,  N. J. Russ,
 H. F. Schaefer III,  N. E. Schultz,  N. Shenvi,  A. C. Simmonett,  A. Sodt,
 D. Stuck,  K. S. Thanthiriwatte,  V. Vanovschi,  Tao Wang,  A. Warshel,
 C. F. Williams,  Q. Wu,  X. Xu,  W. Zhang

 Please cite Q-Chem as follows:
 Y. Shao et al., Mol. Phys. 113, 184-215 (2015)
 DOI: 10.1080/00268976.2014.952696

 Q-Chem 5.2.2 for Intel X86 EM64T Linux

 Parts of Q-Chem use Armadillo 9.800.1 (Horizon Scraper).
 http://arma.sourceforge.net/

 Q-Chem begins on Thu Apr  8 15:21:02 2021

Host: node027
0

     Scratch files written to /home/ymao90/scratch/probe_b3lyp_water20210408150848//
The previous job contains 0 fragments, simply inherited here
Symmetry turned off for PCM/SM12/SMD calculation

Checking the input file for inconsistencies... 	...done.

--------------------------------------------------------------
User input:
--------------------------------------------------------------

$molecule
read
$end

$rem
JOBTYPE  FREQ
METHOD  B3LYP
BASIS  6-31+G(D)
SYMMETRY  FALSE
SYM_IGNORE  FALSE
MEM_TOTAL  8000
MEM_STATIC  2000
MAX_SUB_FILE_NUM  16000
BASIS_LIN_DEP_THRESH  6
THRESH  14
SCF_CONVERGENCE  8
GEN_SCFMAN  TRUE
SCF_GUESS  READ
FD_MAT_VEC_PROD  FALSE
XC_GRID  000099000590
NL_GRID  1
MAX_SCF_CYCLES  200
ISOTOPES TRUE
SOLVENT_METHOD  PCM
$end

$isotopes
1 0
1
 21 2.0141018
$end

$PCM
THEORY                     CPCM
METHOD                     SWIG
SOLVER                     INVERSION
HPOINTS                    302
HEAVYPOINTS                302
$END

$SOLVENT
DIELECTRIC                 78.40
$END
--------------------------------------------------------------

             Standard Nuclear Orientation (Angstroms)
    I     Atom           X                Y                Z
 ----------------------------------------------------------------
    1      C       0.4819010933    11.8630978812    20.4300357033
    2      C       0.4207703699    10.4391541758    19.8478413086
    3      C       1.5091493790     9.5385980925    20.4582916676
    4      C       1.4277904518     9.5244839155    21.9939082765
    5      C       1.4873425109    10.9449466914    22.5776291176
    6      C       0.4012486219    11.8437377979    21.9655905071
    7      H       1.4096218080     8.5219967750    20.0570065179
    8      H      -0.5621148927    10.0077542282    20.0627595357
    9      H       1.4269947959    12.3320014754    20.1167999971
   10      H      -0.3326144430    12.4652797421    20.0077312326
   11      H       0.4859434082     9.0455528455    22.3013162873
   12      H       2.2410636205     8.9092175502    22.4000949767
   13      H       1.3776050084    10.9095262960    23.6695444608
   14      H       2.4768891332    11.3805185975    22.3716376973
   15      H      -0.5893801055    11.4742650397    22.2708391344
   16      H       0.4884384106    12.8673197059    22.3524305127
   17      H       2.4953373571     9.9145831196    20.1459986622
   18      N       0.5385079236    10.4697921617    18.3860362310
   19      H       1.4135905542    10.8022208354    17.9924627936
   20      C      -0.4182765119    10.1082898709    17.5136380390
   21      H      -0.1010619536    10.2202854518    16.4640475503
   22      O      -1.5487465398     9.6873777509    17.8043597909
 ----------------------------------------------------------------

   12    -404.6022696752      3.47e-09  Convergence criterion met
 Total energy in the final basis set =     -404.6022696752

                    Orbital Energies (a.u.)
 --------------------------------------------------------------

 Alpha MOs
 -- Occupied --
-19.1350 -14.3717 -10.2939 -10.2252 -10.1823 -10.1820 -10.1795 -10.1794
-10.1774  -1.0389  -0.9331  -0.8240  -0.7425  -0.7406  -0.6367  -0.6107
 -0.5917  -0.5629  -0.5262  -0.4837  -0.4607  -0.4416  -0.4371  -0.4192
 -0.4180  -0.3951  -0.3781  -0.3736  -0.3471  -0.3428  -0.3213  -0.3115
 -0.3091  -0.2712  -0.2609

          Ground-State Mulliken Net Atomic Charges

     Atom                 Charge (a.u.)
  ----------------------------------------
      1 C                    -0.271584
      2 C                    -0.430868
      3 C                    -0.287710
      4 C                    -0.453625
      5 C                    -0.380950
      6 C                    -0.456057
      7 H                     0.211089
      8 H                     0.226770
      9 H                     0.214911
     10 H                     0.210192
     11 H                     0.207519
     12 H                     0.203348
     13 H                     0.199327
     14 H                     0.203269
     15 H                     0.207393
     16 H                     0.203310
     17 H                     0.215006
     18 N                    -0.383222
     19 H                     0.453467
     20 C                     0.346393
     21 H                     0.185351
     22 O                    -0.623331
  ----------------------------------------
  Sum of atomic charges =     0.000000

                    Cartesian Multipole Moments
 -----------------------------------------------------------------
    Charge (ESU x 10^10)
                -0.0000
    Dipole Moment (Debye)
         X       5.5429      Y       2.1030      Z       1.1927
       Tot       6.0472
    Quadrupole Moments (Debye-Ang)
        XX     -61.0753     XY      55.4222     YY     -14.3130
        XZ     100.0380     YZ      50.2491     ZZ      -7.3709

 Frequency:       -13.54                  93.64                 192.81
 Force Cnst:      0.0005                 0.0194                 0.0490
 Red. Mass:       4.7912                 3.7479                 2.2385
 IR Intens:       15.421                  9.965                 59.226
 Frequency:       207.79                 227.31                 333.56
 Force Cnst:      0.0894                 0.0544                 0.1236
 Red. Mass:       3.5126                 1.7859                 1.8856
 IR Intens:       12.381                  0.195                  0.125
 Frequency:       397.91                 409.68                 449.63
 Force Cnst:      0.3343                 0.3643                 0.2684
 Red. Mass:       3.5833                 3.6842                 2.2534
 IR Intens:       12.469                 31.901                  0.733
 Frequency:       464.56                 531.51                 605.03
 Force Cnst:      0.4741                 0.2678                 0.2475
 Red. Mass:       3.7288                 1.6091                 1.1478
 IR Intens:       12.104                  2.355                106.165
 Frequency:       744.23                 799.14                 821.25
 Force Cnst:      1.3733                 0.5418                 0.9681
 Red. Mass:       4.2081                 1.4399                 2.4362
 IR Intens:        6.057                  0.166                  0.877
 Frequency:       849.64                 901.62                 916.40
 Force Cnst:      0.8480                 0.8780                 0.9698
 Red. Mass:       1.9937                 1.8332                 1.9601
 IR Intens:        2.966                 17.202                  1.262
 Frequency:       935.60                 964.08                1027.82
 Force Cnst:      0.7777                 1.2860                 0.9883
 Red. Mass:       1.5080                 2.3484                 1.5879
 IR Intens:        0.534                  7.600                  0.019
 Frequency:      1035.32                1063.10                1069.40
 Force Cnst:      1.1136                 0.9265                 2.4894
 Red. Mass:       1.7633                 1.3914                 3.6946
 IR Intens:        2.791                  2.671                 22.847
 Frequency:      1091.25                1103.52                1174.28
 Force Cnst:      0.8083                 1.7794                 1.8942
 Red. Mass:       1.1521                 2.4801                 2.3315
 IR Intens:        0.005                  2.052                  6.999
 Frequency:      1209.87                1244.23                1274.49
 Force Cnst:      1.2794                 1.5837                 1.2611
 Red. Mass:       1.4834                 1.7363                 1.3177
 IR Intens:        1.571                 58.358                 16.672
 Frequency:      1287.71                1297.06                1341.97
 Force Cnst:      1.2350                 1.3976                 1.3566
 Red. Mass:       1.2641                 1.4099                 1.2785
 IR Intens:        2.697                 11.850                  2.947
 Frequency:      1343.86                1374.44                1382.61
 Force Cnst:      1.3129                 1.5421                 1.5736
 Red. Mass:       1.2339                 1.3855                 1.3972
 IR Intens:       11.932                  1.473                  0.466
 Frequency:      1384.33                1386.79                1404.39
 Force Cnst:      1.6471                 1.6884                 1.7185
 Red. Mass:       1.4587                 1.4900                 1.4789
 IR Intens:        0.118                 11.824                  0.799
 Frequency:      1426.00                1493.84                1495.88
 Force Cnst:      1.5069                 1.4308                 1.4335
 Red. Mass:       1.2578                 1.0882                 1.0874
 IR Intens:       77.152                  0.093                  5.708
 Frequency:      1499.18                1499.86                1511.92
 Force Cnst:      1.4549                 1.4490                 1.4828
 Red. Mass:       1.0987                 1.0932                 1.1010
 IR Intens:        7.835                 10.853                  0.473
 Frequency:      1561.93                1689.74                3014.22
 Force Cnst:      2.7031                 9.0647                 5.7232
 Red. Mass:       1.8805                 5.3885                 1.0691
 IR Intens:      331.510                813.813                 35.251
 Frequency:      3015.33                3018.77                3019.38
 Force Cnst:      5.7220                 5.7198                 5.7019
 Red. Mass:       1.0681                 1.0653                 1.0615
 IR Intens:       51.453                 21.113                  9.587
 Frequency:      3021.29                3035.93                3062.13
 Force Cnst:      5.7148                 5.8973                 6.0480
 Red. Mass:       1.0626                 1.0860                 1.0947
 IR Intens:      140.096                119.828                118.925
 Frequency:      3063.39                3066.98                3068.41
 Force Cnst:      6.0637                 6.0773                 6.0875
 Red. Mass:       1.0967                 1.0966                 1.0974
 IR Intens:      132.809                 76.693                105.567
 Frequency:      3070.29                3096.64                3578.71
 Force Cnst:      6.1137                 6.1469                 8.1382
 Red. Mass:       1.1008                 1.0880                 1.0785
 IR Intens:       46.627                 62.769                 69.907
 Frequency:       -13.53                  92.98                 172.67
 Force Cnst:      0.0005                 0.0192                 0.0494
 Red. Mass:       4.8007                 3.7683                 2.8116
 IR Intens:       15.392                  9.689                 48.338
 Frequency:       207.44                 227.30                 333.35
 Force Cnst:      0.0904                 0.0543                 0.1241
 Red. Mass:       3.5651                 1.7850                 1.8954
 IR Intens:       10.915                  0.116                  0.110
 Frequency:       393.03                 402.82                 449.44
 Force Cnst:      0.3328                 0.3847                 0.2705
 Red. Mass:       3.6571                 4.0236                 2.2730
 IR Intens:       11.847                 21.846                  0.778
 Frequency:       459.93                 528.99                 596.71
 Force Cnst:      0.4392                 0.2653                 0.2382
 Red. Mass:       3.5239                 1.6090                 1.1353
 IR Intens:        3.476                  1.933                127.599
 Frequency:       734.80                 799.14                 819.21
 Force Cnst:      1.3252                 0.5418                 0.9547
 Red. Mass:       4.1659                 1.4399                 2.4145
 IR Intens:        5.798                  0.164                  0.636
 Frequency:       848.62                 863.42                 901.67
 Force Cnst:      0.8600                 1.7695                 0.8751
 Red. Mass:       2.0268                 4.0285                 1.8269
 IR Intens:        3.484                  1.050                 16.975
 Frequency:       914.07                 935.73                 942.04
 Force Cnst:      1.0084                 0.7790                 1.1801
 Red. Mass:       2.0485                 1.5101                 2.2571
 IR Intens:        2.147                  0.615                  7.024
 Frequency:      1021.74                1035.80                1062.23
 Force Cnst:      1.4220                 1.1382                 0.9370
 Red. Mass:       2.3118                 1.8006                 1.4095
 IR Intens:        8.252                  1.863                  2.366
 Frequency:      1091.20                1103.04                1118.72
 Force Cnst:      0.8022                 1.8106                 2.4348
 Red. Mass:       1.1435                 2.5257                 3.3019
 IR Intens:        0.003                  1.824                 27.043
 Frequency:      1178.17                1209.35                1246.46
 Force Cnst:      2.0670                 1.2786                 1.8539
 Red. Mass:       2.5274                 1.4839                 2.0252
 IR Intens:       19.446                  1.347                 45.424
 Frequency:      1273.93                1287.70                1295.71
 Force Cnst:      1.2547                 1.2350                 1.3784
 Red. Mass:       1.3122                 1.2641                 1.3935
 IR Intens:       13.578                  2.654                  7.079
 Frequency:      1341.58                1343.07                1374.39
 Force Cnst:      1.3305                 1.3202                 1.5418
 Red. Mass:       1.2546                 1.2422                 1.3853
 IR Intens:        5.611                  7.013                  1.416
 Frequency:      1382.53                1384.33                1386.77
 Force Cnst:      1.5722                 1.6477                 1.6874
 Red. Mass:       1.3961                 1.4593                 1.4892
 IR Intens:        0.408                  0.115                 11.373
 Frequency:      1403.92                1493.83                1495.88
 Force Cnst:      1.7070                 1.4308                 1.4335
 Red. Mass:       1.4699                 1.0882                 1.0873
 IR Intens:        0.549                  0.095                  5.767
 Frequency:      1499.18                1499.86                1511.89
 Force Cnst:      1.4548                 1.4489                 1.4829
 Red. Mass:       1.0986                 1.0932                 1.1011
 IR Intens:        7.808                 10.669                  0.660
 Frequency:      1555.62                1666.37                2243.01
 Force Cnst:      2.5201                14.0025                 7.0960
 Red. Mass:       1.7675                 8.5588                 2.3939
 IR Intens:      270.120                931.136                 98.578
 Frequency:      3014.22                3015.33                3018.78
 Force Cnst:      5.7232                 5.7220                 5.7197
 Red. Mass:       1.0691                 1.0681                 1.0653
 IR Intens:       34.574                 51.489                 20.152
 Frequency:      3019.38                3021.29                3062.12
 Force Cnst:      5.7019                 5.7149                 6.0479
 Red. Mass:       1.0615                 1.0626                 1.0947
 IR Intens:        9.491                144.337                121.837
 Frequency:      3063.39                3066.98                3068.40
 Force Cnst:      6.0637                 6.0775                 6.0873
 Red. Mass:       1.0967                 1.0966                 1.0974
 IR Intens:      132.815                 76.502                103.832
 Frequency:      3070.29                3096.59                3578.67
 Force Cnst:      6.1137                 6.1468                 8.1378
 Red. Mass:       1.1008                 1.0880                 1.0785
 IR Intens:       46.611                 66.027                 70.585

 STANDARD THERMODYNAMIC QUANTITIES AT   298.18 K  AND     1.00 ATM

   This Molecule has  1 Imaginary Frequencies
   Zero point vibrational energy:      121.835 kcal/mol

   Atom    1 Element C  Has Mass   12.00000
   Atom    2 Element C  Has Mass   12.00000
   Atom    3 Element C  Has Mass   12.00000
   Atom    4 Element C  Has Mass   12.00000
   Atom    5 Element C  Has Mass   12.00000
   Atom    6 Element C  Has Mass   12.00000
   Atom    7 Element H  Has Mass    1.00783
   Atom    8 Element H  Has Mass    1.00783
   Atom    9 Element H  Has Mass    1.00783
   Atom   10 Element H  Has Mass    1.00783
   Atom   11 Element H  Has Mass    1.00783
   Atom   12 Element H  Has Mass    1.00783
   Atom   13 Element H  Has Mass    1.00783
   Atom   14 Element H  Has Mass    1.00783
   Atom   15 Element H  Has Mass    1.00783
   Atom   16 Element H  Has Mass    1.00783
   Atom   17 Element H  Has Mass    1.00783
   Atom   18 Element N  Has Mass   14.00307
   Atom   19 Element H  Has Mass    1.00783
   Atom   20 Element C  Has Mass   12.00000
   Atom   21 Element H  Has Mass    2.01410
   Atom   22 Element O  Has Mass   15.99491
   Molecular Mass:   128.106042 amu
   Principal axes and moments of inertia in amu*Bohr^2:
                             1           2           3
    Eigenvalues --      537.65203  2029.94435  2230.88318
          X               0.39028    -0.42603     0.81620
          Y               0.16169     0.90444     0.39477
          Z               0.90639     0.02210    -0.42187
   Rotational Symmetry Number is   1
   The Molecule is an Asymmetric Top
   Translational Enthalpy:        0.889 kcal/mol
   Rotational Enthalpy:           0.889 kcal/mol
   Vibrational Enthalpy:        125.116 kcal/mol
   gas constant (RT):             0.593 kcal/mol
   Translational Entropy:        40.457  cal/mol.K
   Rotational Entropy:           29.278  cal/mol.K
   Vibrational Entropy:          18.120  cal/mol.K

   Total Enthalpy:              127.487 kcal/mol
   Total Entropy:                87.854  cal/mol.K

 Total job time:  878.47s(wall), 12318.38s(cpu)
        *  Thank you very much for using Q-Chem.  Have a nice day.  *
