 Q-Chem 5.2 (devel), Q-Chem, Inc., Pleasanton, CA (2019)
 Q-Chem 5.2.2 for Intel X86 EM64T Linux

User input:
--------------------------------------------------------------
$molecule
0 1
C    0.58000    11.83000   20.41000
C    0.42000    10.41000   19.83000
C    1.53000    9.53000    20.44000
C    1.44000    9.53000    21.98000
C    1.37000    10.92000   22.65000
C    0.42000    11.90000   21.94000
H    1.49000    8.50000    20.05000
H    -0.52000   10.00000   20.20000
H    1.40000    12.47000   20.08000
H    -0.28000   12.43000   20.08000
H    0.54000    9.00000    22.28000
H    2.32000    8.99000    22.34000
H    1.27000    10.83000   23.73000
H    2.37000    11.32000   22.50000
H    -0.63000   11.62000   22.11000
H    0.56000    12.91000   22.33000
H    2.51000    9.84000    20.07000
N    0.54000    10.41000   18.38000
H    1.39000    10.78000   17.99000
C    -0.47000   10.09000   17.50000
H    -0.16000   10.30000   16.46000
O    -1.56000   9.66000    17.84000
$end

$rem
JOBTYPE  OPT
METHOD  B3LYP
BASIS  6-31+G(D)
SYMMETRY  FALSE
SYM_IGNORE  FALSE
MEM_TOTAL  8000
MEM_STATIC  2000
MAX_SUB_FILE_NUM  16000
BASIS_LIN_DEP_THRESH  6
THRESH  14
SCF_CONVERGENCE  8
GEN_SCFMAN  TRUE
SCF_GUESS  SAD
FD_MAT_VEC_PROD  FALSE
XC_GRID  000099000590
NL_GRID  1
MAX_SCF_CYCLES  200
GEOM_OPT_TOL_GRADIENT  100
GEOM_OPT_TOL_DISPLACEMENT  100
GEOM_OPT_TOL_ENERGY  10
SOLVENT_METHOD       PCM
$end

$PCM
THEORY                     CPCM
METHOD                     SWIG
SOLVER                     INVERSION
HPOINTS                    302
HEAVYPOINTS                302
$END

$SOLVENT
DIELECTRIC                 20.49
$END

--------------------------------------------------------------

   13    -404.5821378448      5.78e-09  Convergence criterion met
 Total energy in the final basis set =     -404.5821378448
   12    -404.5929106139      2.92e-09  Convergence criterion met
 Total energy in the final basis set =     -404.5929106139
   12    -404.5986728723      2.99e-09  Convergence criterion met
 Total energy in the final basis set =     -404.5986728723
   12    -404.6005360467      3.14e-09  Convergence criterion met
 Total energy in the final basis set =     -404.6005360467
   12    -404.6013873427      3.25e-09  Convergence criterion met
 Total energy in the final basis set =     -404.6013873427
   12    -404.6015256837      3.31e-09  Convergence criterion met
 Total energy in the final basis set =     -404.6015256837
   12    -404.6015368149      3.28e-09  Convergence criterion met
 Total energy in the final basis set =     -404.6015368149
   12    -404.6015393030      3.28e-09  Convergence criterion met
 Total energy in the final basis set =     -404.6015393030
   12    -404.6015400205      3.28e-09  Convergence criterion met
 Total energy in the final basis set =     -404.6015400205
   12    -404.6015401075      3.28e-09  Convergence criterion met
 Total energy in the final basis set =     -404.6015401075
 Final energy is   -404.601540107545
 **  OPTIMIZATION CONVERGED  **
 Total job time:  734.52s(wall), 10221.31s(cpu)
        *  Thank you very much for using Q-Chem.  Have a nice day.  *

User input: 2 of 2

                  Welcome to Q-Chem
     A Quantum Leap Into The Future Of Chemistry

 Q-Chem 5.2 (devel), Q-Chem, Inc., Pleasanton, CA (2019)

 Yihan Shao,  Zhengting Gan,  E. Epifanovsky,  A. T. B. Gilbert,  M. Wormit,
 J. Kussmann,  A. W. Lange,  A. Behn,  Jia Deng,  Xintian Feng,  D. Ghosh,
 M. Goldey,  P. R. Horn,  L. D. Jacobson,  I. Kaliman,  T. Kus,  A. Landau,
 Jie Liu,  E. I. Proynov,  R. M. Richard,  R. P. Steele,  E. J. Sundstrom,
 H. L. Woodcock III,  P. M. Zimmerman,  D. Zuev,  B. Alam,  B. Albrecht,
 E. Alguire,  S. A. Baeppler,  D. Barton,  Z. Benda,  Y. A. Bernard,
 E. J. Berquist,  K. B. Bravaya,  H. Burton,  K. Carter-Fenk,  D. Casanova,
 Chun-Min Chang,  Yunqing Chen,  A. Chien,  K. D. Closser,  M. P. Coons,
 S. Coriani,  S. Dasgupta,  A. L. Dempwolff,  M. Diedenhofen,  Hainam Do,
 R. G. Edgar,  Po-Tung Fang,  S. Faraji,  S. Fatehi,  Qingguo Feng,
 J. Fosso-Tande,  J. Gayvert,  Qinghui Ge,  A. Ghysels,  G. Gidofalvi,
 J. Gomes,  J. Gonthier,  A. Gunina,  D. Hait,  M. W. D. Hanson-Heine,
 P. H. P. Harbach,  A. W. Hauser,  M. F. Herbst,  J. E. Herr,
 E. G. Hohenstein,  Z. C. Holden,  Kerwin Hui,  B. C. Huynh,  T.-C. Jagau,
 Hyunjun Ji,  B. Kaduk,  K. Khistyaev,  Jaehoon Kim,  P. Klunzinger,  K. Koh,
 D. Kosenkov,  L. Koulias,  T. Kowalczyk,  C. M. Krauter,  A. Kunitsa,
 Ka Un Lao,  A. Laurent,  K. V. Lawler,  Joonho Lee,  D. Lefrancois,
 S. Lehtola,  D. S. Levine,  Yi-Pei Li,  You-Sheng Lin,  Fenglai Liu,
 Kuan-Yu Liu,  E. Livshits,  M. Loipersberger,  A. Luenser,  P. Manohar,
 E. Mansoor,  S. F. Manzer,  Shan-Ping Mao,  Yuezhi Mao,  N. Mardirossian,
 A. V. Marenich,  T. Markovich,  L. A. Martinez-Martinez,  S. A. Maurer,
 N. J. Mayhall,  S. C. McKenzie,  J.-M. Mewes,  P. Morgante,  A. F. Morrison,
 J. W. Mullinax,  K. Nanda,  T. S. Nguyen-Beck,  R. Olivares-Amaya,
 J. A. Parkhill,  S. K. Paul,  F. Pavosevic,  Zheng Pei,  T. M. Perrine,
 F. Plasser,  P. Pokhilko,  S. Prager,  A. Prociuk,  E. Ramos,  B. Rana,
 D. R. Rehn,  F. Rob,  M. Scheurer,  M. Schneider,  N. Sergueev,
 S. M. Sharada,  S. Sharma,  D. W. Small,  T. Stauch,  C. J. Stein,
 T. Stein,  Yu-Chuan Su,  S. P. Veccham,  Zhen Tao,  A. J. W. Thom,
 A. Tkatchenko,  T. Tsuchimochi,  N. M. Tubman,  L. Vogt,  M. L. Vidal,
 O. Vydrov,  M. A. Watson,  J. Wenzel,  M. de Wergifosse,  T. A. Wesolowski,
 A. White,  J. Witte,  A. Yamada,  Jun Yang,  K. Yao,  S. Yeganeh,
 S. R. Yost,  Zhi-Qiang You,  A. Zech,  Igor Ying Zhang,  Xing Zhang,
 Yan Zhao,  Ying Zhu,  B. R. Brooks,  G. K. L. Chan,  C. J. Cramer,
 M. S. Gordon,  W. J. Hehre,  A. Klamt,  M. W. Schmidt,  C. D. Sherrill,
 D. G. Truhlar,  A. Aspuru-Guzik,  R. Baer,  A. T. Bell,  N. A. Besley,
 Jeng-Da Chai,  A. E. DePrince, III,  R. A. DiStasio Jr.,  A. Dreuw,
 B. D. Dunietz,  T. R. Furlani,  Chao-Ping Hsu,  Yousung Jung,  Jing Kong,
 D. S. Lambrecht,  WanZhen Liang,  C. Ochsenfeld,  V. A. Rassolov,
 L. V. Slipchenko,  J. E. Subotnik,  T. Van Voorhis,  J. M. Herbert,
 A. I. Krylov,  P. M. W. Gill,  M. Head-Gordon

 Contributors to earlier versions of Q-Chem not listed above:
 R. D. Adamson,  B. Austin,  J. Baker,  G. J. O. Beran,  K. Brandhorst,
 S. T. Brown,  E. F. C. Byrd,  A. K. Chakraborty,  C.-L. Cheng,
 Siu Hung Chien,  D. M. Chipman,  D. L. Crittenden,  H. Dachsel,
 R. J. Doerksen,  A. D. Dutoi,  L. Fusti-Molnar,  W. A. Goddard III,
 A. Golubeva-Zadorozhnaya,  S. R. Gwaltney,  G. Hawkins,  A. Heyden,
 S. Hirata,  G. Kedziora,  F. J. Keil,  C. Kelley,  Jihan Kim,  R. A. King,
 R. Z. Khaliullin,  P. P. Korambath,  W. Kurlancheek,  A. M. Lee,  M. S. Lee,
 S. V. Levchenko,  Ching Yeh Lin,  D. Liotard,  R. C. Lochan,  I. Lotan,
 P. E. Maslen,  N. Nair,  D. P. O'Neill,  D. Neuhauser,  E. Neuscamman,
 C. M. Oana,  R. Olson,  B. Peters,  R. Peverati,  P. A. Pieniazek,
 Y. M. Rhee,  J. Ritchie,  M. A. Rohrdanz,  E. Rosta,  N. J. Russ,
 H. F. Schaefer III,  N. E. Schultz,  N. Shenvi,  A. C. Simmonett,  A. Sodt,
 D. Stuck,  K. S. Thanthiriwatte,  V. Vanovschi,  Tao Wang,  A. Warshel,
 C. F. Williams,  Q. Wu,  X. Xu,  W. Zhang

 Please cite Q-Chem as follows:
 Y. Shao et al., Mol. Phys. 113, 184-215 (2015)
 DOI: 10.1080/00268976.2014.952696

 Q-Chem 5.2.2 for Intel X86 EM64T Linux

 Parts of Q-Chem use Armadillo 9.800.1 (Horizon Scraper).
 http://arma.sourceforge.net/

 Q-Chem begins on Thu Apr  8 15:21:03 2021

Host: node028
0

     Scratch files written to /home/ymao90/scratch/probe_b3lyp_acetone20210408150847//
The previous job contains 0 fragments, simply inherited here
Symmetry turned off for PCM/SM12/SMD calculation

Checking the input file for inconsistencies... 	...done.

--------------------------------------------------------------
User input:
--------------------------------------------------------------

$molecule
read
$end

$rem
JOBTYPE  FREQ
METHOD  B3LYP
BASIS  6-31+G(D)
SYMMETRY  FALSE
SYM_IGNORE  FALSE
MEM_TOTAL  8000
MEM_STATIC  2000
MAX_SUB_FILE_NUM  16000
BASIS_LIN_DEP_THRESH  6
THRESH  14
SCF_CONVERGENCE  8
GEN_SCFMAN  TRUE
SCF_GUESS  READ
FD_MAT_VEC_PROD  FALSE
XC_GRID  000099000590
NL_GRID  1
MAX_SCF_CYCLES  200
ISOTOPES TRUE
SOLVENT_METHOD  PCM
$end

$isotopes
1 0
1
 21 2.0141018
$end

$PCM
THEORY                     CPCM
METHOD                     SWIG
SOLVER                     INVERSION
HPOINTS                    302
HEAVYPOINTS                302
$END

$SOLVENT
DIELECTRIC                 20.49
$END
--------------------------------------------------------------

             Standard Nuclear Orientation (Angstroms)
    I     Atom           X                Y                Z
 ----------------------------------------------------------------
    1      C       0.4823177324    11.8631313585    20.4298701718
    2      C       0.4216546941    10.4392909387    19.8473669248
    3      C       1.5097554873     9.5387374226    20.4583112827
    4      C       1.4278070727     9.5244576702    21.9939011528
    5      C       1.4868915683    10.9448446141    22.5778513394
    6      C       0.4010465749    11.8436486849    21.9653916737
    7      H       1.4104419097     8.5222077090    20.0568459642
    8      H      -0.5613144569    10.0078175415    20.0617313467
    9      H       1.4274561594    12.3325289481    20.1172241449
   10      H      -0.3320824122    12.4651861395    20.0072337297
   11      H       0.4859030031     9.0453480029    22.3007811717
   12      H       2.2408687108     8.9091775945    22.4004919918
   13      H       1.3766568771    10.9092733613    23.6696984583
   14      H       2.4765586899    11.3805648387    22.3725977344
   15      H      -0.5897037034    11.4741232653    22.2701039089
   16      H       0.4878882835    12.8671584013    22.3524989003
   17      H       2.4962932745     9.9145673324    20.1466395756
   18      N       0.5391860379    10.4696905042    18.3856601127
   19      H       1.4140135877    10.8015629833    17.9913753497
   20      C      -0.4195131770    10.1082948979    17.5140696947
   21      H      -0.1031022952    10.2197823733    16.4639558030
   22      O      -1.5490236185     9.6886054178    17.8063995681
 ----------------------------------------------------------------

   12    -404.6015401071      3.28e-09  Convergence criterion met
 Total energy in the final basis set =     -404.6015401071

                    Orbital Energies (a.u.)
 --------------------------------------------------------------

 Alpha MOs
 -- Occupied --
-19.1344 -14.3718 -10.2938 -10.2255 -10.1829 -10.1825 -10.1800 -10.1799
-10.1780  -1.0388  -0.9331  -0.8245  -0.7429  -0.7411  -0.6370  -0.6112
 -0.5921  -0.5634  -0.5265  -0.4838  -0.4609  -0.4420  -0.4375  -0.4192
 -0.4180  -0.3955  -0.3786  -0.3738  -0.3476  -0.3434  -0.3218  -0.3120
 -0.3095  -0.2706  -0.2608

          Ground-State Mulliken Net Atomic Charges

     Atom                 Charge (a.u.)
  ----------------------------------------
      1 C                    -0.270636
      2 C                    -0.434089
      3 C                    -0.287040
      4 C                    -0.452224
      5 C                    -0.381365
      6 C                    -0.454663
      7 H                     0.211255
      8 H                     0.227844
      9 H                     0.213694
     10 H                     0.210441
     11 H                     0.207578
     12 H                     0.203126
     13 H                     0.199307
     14 H                     0.202797
     15 H                     0.207465
     16 H                     0.203097
     17 H                     0.213755
     18 N                    -0.383711
     19 H                     0.450724
     20 C                     0.345715
     21 H                     0.183358
     22 O                    -0.616429
  ----------------------------------------
  Sum of atomic charges =     0.000000

                    Cartesian Multipole Moments
 -----------------------------------------------------------------
    Charge (ESU x 10^10)
                -0.0000
    Dipole Moment (Debye)
         X       5.4495      Y       2.0641      Z       1.1838
       Tot       5.9463
    Quadrupole Moments (Debye-Ang)
        XX     -61.0611     XY      54.4703     YY     -15.1068
        XZ      98.3173     YZ      49.4422     ZZ      -7.7057

 Frequency:       -13.20                  94.07                 192.17
 Force Cnst:      0.0005                 0.0195                 0.0485
 Red. Mass:       4.7910                 3.7384                 2.2299
 IR Intens:       14.855                  9.661                 58.316
 Frequency:       208.01                 227.36                 333.61
 Force Cnst:      0.0898                 0.0544                 0.1237
 Red. Mass:       3.5240                 1.7858                 1.8859
 IR Intens:       12.083                  0.185                  0.124
 Frequency:       397.93                 409.15                 449.55
 Force Cnst:      0.3344                 0.3651                 0.2682
 Red. Mass:       3.5847                 3.7020                 2.2522
 IR Intens:       12.353                 31.570                  0.711
 Frequency:       464.24                 531.65                 601.35
 Force Cnst:      0.4723                 0.2681                 0.2445
 Red. Mass:       3.7197                 1.6096                 1.1476
 IR Intens:       11.652                  2.304                102.384
 Frequency:       744.37                 799.19                 821.40
 Force Cnst:      1.3721                 0.5419                 0.9694
 Red. Mass:       4.2032                 1.4400                 2.4386
 IR Intens:        5.911                  0.163                  0.858
 Frequency:       849.72                 901.78                 916.55
 Force Cnst:      0.8485                 0.8798                 0.9699
 Red. Mass:       1.9947                 1.8363                 1.9596
 IR Intens:        2.833                 16.623                  1.202
 Frequency:       935.67                 964.26                1027.27
 Force Cnst:      0.7772                 1.2869                 0.9879
 Red. Mass:       1.5067                 2.3491                 1.5888
 IR Intens:        0.532                  7.402                  0.022
 Frequency:      1035.55                1063.38                1069.67
 Force Cnst:      1.1150                 0.9275                 2.4876
 Red. Mass:       1.7648                 1.3922                 3.6900
 IR Intens:        2.726                  2.605                 21.797
 Frequency:      1091.51                1103.53                1174.42
 Force Cnst:      0.8091                 1.7826                 1.8918
 Red. Mass:       1.1527                 2.4845                 2.3280
 IR Intens:        0.007                  2.025                  6.510
 Frequency:      1210.20                1242.84                1274.82
 Force Cnst:      1.2793                 1.5912                 1.2625
 Red. Mass:       1.4825                 1.7484                 1.3185
 IR Intens:        1.533                 61.229                 16.531
 Frequency:      1288.05                1296.94                1342.18
 Force Cnst:      1.2354                 1.3897                 1.3577
 Red. Mass:       1.2638                 1.4023                 1.2792
 IR Intens:        2.711                 11.479                  2.914
 Frequency:      1344.16                1374.66                1382.89
 Force Cnst:      1.3134                 1.5425                 1.5588
 Red. Mass:       1.2338                 1.3855                 1.3835
 IR Intens:       12.265                  1.434                  0.520
 Frequency:      1384.59                1387.10                1404.57
 Force Cnst:      1.6622                 1.6884                 1.7193
 Red. Mass:       1.4716                 1.4894                 1.4791
 IR Intens:        0.079                 11.456                  0.842
 Frequency:      1426.51                1494.24                1496.44
 Force Cnst:      1.5035                 1.4314                 1.4354
 Red. Mass:       1.2540                 1.0881                 1.0879
 IR Intens:       70.337                  0.100                  5.507
 Frequency:      1499.64                1500.42                1512.58
 Force Cnst:      1.4556                 1.4491                 1.4841
 Red. Mass:       1.0985                 1.0925                 1.1010
 IR Intens:        7.710                 11.077                  0.477
 Frequency:      1561.07                1693.74                3014.05
 Force Cnst:      2.6939                 9.2924                 5.7214
 Red. Mass:       1.8762                 5.4977                 1.0689
 IR Intens:      324.030                791.612                 35.044
 Frequency:      3014.91                3018.66                3019.31
 Force Cnst:      5.7204                 5.7278                 5.7050
 Red. Mass:       1.0681                 1.0669                 1.0622
 IR Intens:       46.990                  4.877                  5.756
 Frequency:      3020.89                3032.97                3062.30
 Force Cnst:      5.7057                 5.8854                 6.0474
 Red. Mass:       1.0612                 1.0859                 1.0945
 IR Intens:      157.121                121.560                117.300
 Frequency:      3063.56                3067.18                3068.66
 Force Cnst:      6.0651                 6.0802                 6.0863
 Red. Mass:       1.0968                 1.0970                 1.0970
 IR Intens:      127.655                 77.506                 98.302
 Frequency:      3070.45                3096.94                3579.65
 Force Cnst:      6.1119                 6.1479                 8.1421
 Red. Mass:       1.1003                 1.0880                 1.0785
 IR Intens:       47.401                 59.117                 65.310
 Frequency:       -13.19                  93.41                 172.06
 Force Cnst:      0.0005                 0.0193                 0.0489
 Red. Mass:       4.8004                 3.7589                 2.8054
 IR Intens:       14.828                  9.395                 47.462
 Frequency:       207.67                 227.35                 333.40
 Force Cnst:      0.0908                 0.0544                 0.1242
 Red. Mass:       3.5719                 1.7849                 1.8957
 IR Intens:       10.762                  0.110                  0.109
 Frequency:       393.03                 402.38                 449.37
 Force Cnst:      0.3332                 0.3852                 0.2703
 Red. Mass:       3.6614                 4.0380                 2.2718
 IR Intens:       11.719                 21.558                  0.755
 Frequency:       459.77                 529.12                 592.71
 Force Cnst:      0.4379                 0.2655                 0.2350
 Red. Mass:       3.5162                 1.6096                 1.1354
 IR Intens:        3.344                  1.890                123.688
 Frequency:       734.93                 799.18                 819.34
 Force Cnst:      1.3240                 0.5419                 0.9559
 Red. Mass:       4.1606                 1.4400                 2.4167
 IR Intens:        5.654                  0.162                  0.623
 Frequency:       848.70                 863.15                 901.82
 Force Cnst:      0.8606                 1.7693                 0.8768
 Red. Mass:       2.0279                 4.0307                 1.8299
 IR Intens:        3.328                  0.977                 16.409
 Frequency:       914.21                 935.80                 942.07
 Force Cnst:      1.0087                 0.7786                 1.1801
 Red. Mass:       2.0484                 1.5090                 2.2568
 IR Intens:        2.061                  0.611                  6.774
 Frequency:      1021.75                1036.02                1062.54
 Force Cnst:      1.4211                 1.1392                 0.9376
 Red. Mass:       2.3104                 1.8013                 1.4096
 IR Intens:        7.834                  1.822                  2.306
 Frequency:      1091.45                1103.06                1118.92
 Force Cnst:      0.8029                 1.8143                 2.4353
 Red. Mass:       1.1439                 2.5308                 3.3014
 IR Intens:        0.005                  1.801                 26.183
 Frequency:      1178.39                1209.70                1245.36
 Force Cnst:      2.0685                 1.2786                 1.8606
 Red. Mass:       2.5283                 1.4829                 2.0361
 IR Intens:       18.829                  1.310                 47.156
 Frequency:      1274.28                1288.04                1295.67
 Force Cnst:      1.2566                 1.2355                 1.3716
 Red. Mass:       1.3134                 1.2639                 1.3867
 IR Intens:       13.520                  2.670                  6.961
 Frequency:      1341.80                1343.36                1374.62
 Force Cnst:      1.3330                 1.3194                 1.5422
 Red. Mass:       1.2567                 1.2409                 1.3853
 IR Intens:        5.445                  7.428                  1.380
 Frequency:      1382.81                1384.59                1387.08
 Force Cnst:      1.5580                 1.6621                 1.6875
 Red. Mass:       1.3830                 1.4715                 1.4886
 IR Intens:        0.458                  0.079                 11.097
 Frequency:      1404.08                1494.24                1496.44
 Force Cnst:      1.7077                 1.4314                 1.4354
 Red. Mass:       1.4702                 1.0881                 1.0879
 IR Intens:        0.596                  0.102                  5.578
 Frequency:      1499.64                1500.42                1512.55
 Force Cnst:      1.4556                 1.4490                 1.4842
 Red. Mass:       1.0985                 1.0925                 1.1011
 IR Intens:        7.684                 10.887                  0.666
 Frequency:      1554.82                1670.65                2240.87
 Force Cnst:      2.5155                14.1128                 7.0851
 Red. Mass:       1.7661                 8.5820                 2.3947
 IR Intens:      265.239                900.762                 99.217
 Frequency:      3014.05                3014.91                3018.67
 Force Cnst:      5.7213                 5.7204                 5.7275
 Red. Mass:       1.0689                 1.0681                 1.0668
 IR Intens:       34.378                 47.039                  5.002
 Frequency:      3019.31                3020.89                3062.30
 Force Cnst:      5.7052                 5.7058                 6.0473
 Red. Mass:       1.0622                 1.0612                 1.0945
 IR Intens:        5.601                161.069                119.920
 Frequency:      3063.56                3067.18                3068.65
 Force Cnst:      6.0651                 6.0804                 6.0861
 Red. Mass:       1.0968                 1.0970                 1.0970
 IR Intens:      127.660                 77.289                 96.768
 Frequency:      3070.45                3096.89                3579.60
 Force Cnst:      6.1119                 6.1478                 8.1417
 Red. Mass:       1.1003                 1.0880                 1.0784
 IR Intens:       47.378                 62.138                 65.956

 STANDARD THERMODYNAMIC QUANTITIES AT   298.18 K  AND     1.00 ATM

   This Molecule has  1 Imaginary Frequencies
   Zero point vibrational energy:      121.841 kcal/mol

   Atom    1 Element C  Has Mass   12.00000
   Atom    2 Element C  Has Mass   12.00000
   Atom    3 Element C  Has Mass   12.00000
   Atom    4 Element C  Has Mass   12.00000
   Atom    5 Element C  Has Mass   12.00000
   Atom    6 Element C  Has Mass   12.00000
   Atom    7 Element H  Has Mass    1.00783
   Atom    8 Element H  Has Mass    1.00783
   Atom    9 Element H  Has Mass    1.00783
   Atom   10 Element H  Has Mass    1.00783
   Atom   11 Element H  Has Mass    1.00783
   Atom   12 Element H  Has Mass    1.00783
   Atom   13 Element H  Has Mass    1.00783
   Atom   14 Element H  Has Mass    1.00783
   Atom   15 Element H  Has Mass    1.00783
   Atom   16 Element H  Has Mass    1.00783
   Atom   17 Element H  Has Mass    1.00783
   Atom   18 Element N  Has Mass   14.00307
   Atom   19 Element H  Has Mass    1.00783
   Atom   20 Element C  Has Mass   12.00000
   Atom   21 Element H  Has Mass    2.01410
   Atom   22 Element O  Has Mass   15.99491
   Molecular Mass:   128.106042 amu
   Principal axes and moments of inertia in amu*Bohr^2:
                             1           2           3
    Eigenvalues --      537.79565  2029.48110  2230.32565
          X               0.39039    -0.42642     0.81594
          Y               0.16154     0.90425     0.39528
          Z               0.90637     0.02251    -0.42189
   Rotational Symmetry Number is   1
   The Molecule is an Asymmetric Top
   Translational Enthalpy:        0.889 kcal/mol
   Rotational Enthalpy:           0.889 kcal/mol
   Vibrational Enthalpy:        125.124 kcal/mol
   gas constant (RT):             0.593 kcal/mol
   Translational Entropy:        40.457  cal/mol.K
   Rotational Entropy:           29.278  cal/mol.K
   Vibrational Entropy:          18.122  cal/mol.K

   Total Enthalpy:              127.494 kcal/mol
   Total Entropy:                87.857  cal/mol.K

 Total job time:  892.27s(wall), 12324.32s(cpu)
        *  Thank you very much for using Q-Chem.  Have a nice day.  *
