 Q-Chem 5.2 (devel), Q-Chem, Inc., Pleasanton, CA (2019)
 Q-Chem 5.2.2 for Intel X86 EM64T Linux

User input:
--------------------------------------------------------------
$molecule
0 1
C    0.58000    11.83000   20.41000
C    0.42000    10.41000   19.83000
C    1.53000    9.53000    20.44000
C    1.44000    9.53000    21.98000
C    1.37000    10.92000   22.65000
C    0.42000    11.90000   21.94000
H    1.49000    8.50000    20.05000
H    -0.52000   10.00000   20.20000
H    1.40000    12.47000   20.08000
H    -0.28000   12.43000   20.08000
H    0.54000    9.00000    22.28000
H    2.32000    8.99000    22.34000
H    1.27000    10.83000   23.73000
H    2.37000    11.32000   22.50000
H    -0.63000   11.62000   22.11000
H    0.56000    12.91000   22.33000
H    2.51000    9.84000    20.07000
N    0.54000    10.41000   18.38000
H    1.39000    10.78000   17.99000
C    -0.47000   10.09000   17.50000
H    -0.16000   10.30000   16.46000
O    -1.56000   9.66000    17.84000
$end

$rem
JOBTYPE  OPT
METHOD  B3LYP
BASIS  6-31+G(D)
SYMMETRY  FALSE
SYM_IGNORE  FALSE
MEM_TOTAL  8000
MEM_STATIC  2000
MAX_SUB_FILE_NUM  16000
BASIS_LIN_DEP_THRESH  6
THRESH  14
SCF_CONVERGENCE  8
GEN_SCFMAN  TRUE
SCF_GUESS  SAD
FD_MAT_VEC_PROD  FALSE
XC_GRID  000099000590
NL_GRID  1
MAX_SCF_CYCLES  200
GEOM_OPT_TOL_GRADIENT  100
GEOM_OPT_TOL_DISPLACEMENT  100
GEOM_OPT_TOL_ENERGY  10
SOLVENT_METHOD       PCM
$end

$PCM
THEORY                     CPCM
METHOD                     SWIG
SOLVER                     INVERSION
HPOINTS                    302
HEAVYPOINTS                302
$END

$SOLVENT
DIELECTRIC                 4.71
$END

--------------------------------------------------------------

   13    -404.5792867195      6.61e-09  Convergence criterion met
 Total energy in the final basis set =     -404.5792867195
   11    -404.5899399823      9.55e-09  Convergence criterion met
 Total energy in the final basis set =     -404.5899399823
   11    -404.5956216019      9.40e-09  Convergence criterion met
 Total energy in the final basis set =     -404.5956216019
   11    -404.5974560307      9.10e-09  Convergence criterion met
 Total energy in the final basis set =     -404.5974560307
   11    -404.5982919444      9.06e-09  Convergence criterion met
 Total energy in the final basis set =     -404.5982919444
   11    -404.5984310873      8.14e-09  Convergence criterion met
 Total energy in the final basis set =     -404.5984310873
   11    -404.5984420712      8.48e-09  Convergence criterion met
 Total energy in the final basis set =     -404.5984420712
   11    -404.5984449811      8.52e-09  Convergence criterion met
 Total energy in the final basis set =     -404.5984449811
   11    -404.5984459253      8.55e-09  Convergence criterion met
 Total energy in the final basis set =     -404.5984459253
   11    -404.5984460556      8.53e-09  Convergence criterion met
 Total energy in the final basis set =     -404.5984460556
   11    -404.5984460673      8.53e-09  Convergence criterion met
 Total energy in the final basis set =     -404.5984460673
 Final energy is   -404.598446067318
 **  OPTIMIZATION CONVERGED  **
 Total job time:  762.48s(wall), 10545.86s(cpu)
        *  Thank you very much for using Q-Chem.  Have a nice day.  *

User input: 2 of 2

                  Welcome to Q-Chem
     A Quantum Leap Into The Future Of Chemistry

 Q-Chem 5.2 (devel), Q-Chem, Inc., Pleasanton, CA (2019)

 Yihan Shao,  Zhengting Gan,  E. Epifanovsky,  A. T. B. Gilbert,  M. Wormit,
 J. Kussmann,  A. W. Lange,  A. Behn,  Jia Deng,  Xintian Feng,  D. Ghosh,
 M. Goldey,  P. R. Horn,  L. D. Jacobson,  I. Kaliman,  T. Kus,  A. Landau,
 Jie Liu,  E. I. Proynov,  R. M. Richard,  R. P. Steele,  E. J. Sundstrom,
 H. L. Woodcock III,  P. M. Zimmerman,  D. Zuev,  B. Alam,  B. Albrecht,
 E. Alguire,  S. A. Baeppler,  D. Barton,  Z. Benda,  Y. A. Bernard,
 E. J. Berquist,  K. B. Bravaya,  H. Burton,  K. Carter-Fenk,  D. Casanova,
 Chun-Min Chang,  Yunqing Chen,  A. Chien,  K. D. Closser,  M. P. Coons,
 S. Coriani,  S. Dasgupta,  A. L. Dempwolff,  M. Diedenhofen,  Hainam Do,
 R. G. Edgar,  Po-Tung Fang,  S. Faraji,  S. Fatehi,  Qingguo Feng,
 J. Fosso-Tande,  J. Gayvert,  Qinghui Ge,  A. Ghysels,  G. Gidofalvi,
 J. Gomes,  J. Gonthier,  A. Gunina,  D. Hait,  M. W. D. Hanson-Heine,
 P. H. P. Harbach,  A. W. Hauser,  M. F. Herbst,  J. E. Herr,
 E. G. Hohenstein,  Z. C. Holden,  Kerwin Hui,  B. C. Huynh,  T.-C. Jagau,
 Hyunjun Ji,  B. Kaduk,  K. Khistyaev,  Jaehoon Kim,  P. Klunzinger,  K. Koh,
 D. Kosenkov,  L. Koulias,  T. Kowalczyk,  C. M. Krauter,  A. Kunitsa,
 Ka Un Lao,  A. Laurent,  K. V. Lawler,  Joonho Lee,  D. Lefrancois,
 S. Lehtola,  D. S. Levine,  Yi-Pei Li,  You-Sheng Lin,  Fenglai Liu,
 Kuan-Yu Liu,  E. Livshits,  M. Loipersberger,  A. Luenser,  P. Manohar,
 E. Mansoor,  S. F. Manzer,  Shan-Ping Mao,  Yuezhi Mao,  N. Mardirossian,
 A. V. Marenich,  T. Markovich,  L. A. Martinez-Martinez,  S. A. Maurer,
 N. J. Mayhall,  S. C. McKenzie,  J.-M. Mewes,  P. Morgante,  A. F. Morrison,
 J. W. Mullinax,  K. Nanda,  T. S. Nguyen-Beck,  R. Olivares-Amaya,
 J. A. Parkhill,  S. K. Paul,  F. Pavosevic,  Zheng Pei,  T. M. Perrine,
 F. Plasser,  P. Pokhilko,  S. Prager,  A. Prociuk,  E. Ramos,  B. Rana,
 D. R. Rehn,  F. Rob,  M. Scheurer,  M. Schneider,  N. Sergueev,
 S. M. Sharada,  S. Sharma,  D. W. Small,  T. Stauch,  C. J. Stein,
 T. Stein,  Yu-Chuan Su,  S. P. Veccham,  Zhen Tao,  A. J. W. Thom,
 A. Tkatchenko,  T. Tsuchimochi,  N. M. Tubman,  L. Vogt,  M. L. Vidal,
 O. Vydrov,  M. A. Watson,  J. Wenzel,  M. de Wergifosse,  T. A. Wesolowski,
 A. White,  J. Witte,  A. Yamada,  Jun Yang,  K. Yao,  S. Yeganeh,
 S. R. Yost,  Zhi-Qiang You,  A. Zech,  Igor Ying Zhang,  Xing Zhang,
 Yan Zhao,  Ying Zhu,  B. R. Brooks,  G. K. L. Chan,  C. J. Cramer,
 M. S. Gordon,  W. J. Hehre,  A. Klamt,  M. W. Schmidt,  C. D. Sherrill,
 D. G. Truhlar,  A. Aspuru-Guzik,  R. Baer,  A. T. Bell,  N. A. Besley,
 Jeng-Da Chai,  A. E. DePrince, III,  R. A. DiStasio Jr.,  A. Dreuw,
 B. D. Dunietz,  T. R. Furlani,  Chao-Ping Hsu,  Yousung Jung,  Jing Kong,
 D. S. Lambrecht,  WanZhen Liang,  C. Ochsenfeld,  V. A. Rassolov,
 L. V. Slipchenko,  J. E. Subotnik,  T. Van Voorhis,  J. M. Herbert,
 A. I. Krylov,  P. M. W. Gill,  M. Head-Gordon

 Contributors to earlier versions of Q-Chem not listed above:
 R. D. Adamson,  B. Austin,  J. Baker,  G. J. O. Beran,  K. Brandhorst,
 S. T. Brown,  E. F. C. Byrd,  A. K. Chakraborty,  C.-L. Cheng,
 Siu Hung Chien,  D. M. Chipman,  D. L. Crittenden,  H. Dachsel,
 R. J. Doerksen,  A. D. Dutoi,  L. Fusti-Molnar,  W. A. Goddard III,
 A. Golubeva-Zadorozhnaya,  S. R. Gwaltney,  G. Hawkins,  A. Heyden,
 S. Hirata,  G. Kedziora,  F. J. Keil,  C. Kelley,  Jihan Kim,  R. A. King,
 R. Z. Khaliullin,  P. P. Korambath,  W. Kurlancheek,  A. M. Lee,  M. S. Lee,
 S. V. Levchenko,  Ching Yeh Lin,  D. Liotard,  R. C. Lochan,  I. Lotan,
 P. E. Maslen,  N. Nair,  D. P. O'Neill,  D. Neuhauser,  E. Neuscamman,
 C. M. Oana,  R. Olson,  B. Peters,  R. Peverati,  P. A. Pieniazek,
 Y. M. Rhee,  J. Ritchie,  M. A. Rohrdanz,  E. Rosta,  N. J. Russ,
 H. F. Schaefer III,  N. E. Schultz,  N. Shenvi,  A. C. Simmonett,  A. Sodt,
 D. Stuck,  K. S. Thanthiriwatte,  V. Vanovschi,  Tao Wang,  A. Warshel,
 C. F. Williams,  Q. Wu,  X. Xu,  W. Zhang

 Please cite Q-Chem as follows:
 Y. Shao et al., Mol. Phys. 113, 184-215 (2015)
 DOI: 10.1080/00268976.2014.952696

 Q-Chem 5.2.2 for Intel X86 EM64T Linux

 Parts of Q-Chem use Armadillo 9.800.1 (Horizon Scraper).
 http://arma.sourceforge.net/

 Q-Chem begins on Thu Apr  8 15:21:31 2021

Host: node024
0

     Scratch files written to /home/ymao90/scratch/probe_b3lyp_chloroform20210408150847//
The previous job contains 0 fragments, simply inherited here
Symmetry turned off for PCM/SM12/SMD calculation

Checking the input file for inconsistencies... 	...done.

--------------------------------------------------------------
User input:
--------------------------------------------------------------

$molecule
read
$end

$rem
JOBTYPE  FREQ
METHOD  B3LYP
BASIS  6-31+G(D)
SYMMETRY  FALSE
SYM_IGNORE  FALSE
MEM_TOTAL  8000
MEM_STATIC  2000
MAX_SUB_FILE_NUM  16000
BASIS_LIN_DEP_THRESH  6
THRESH  14
SCF_CONVERGENCE  8
GEN_SCFMAN  TRUE
SCF_GUESS  READ
FD_MAT_VEC_PROD  FALSE
XC_GRID  000099000590
NL_GRID  1
MAX_SCF_CYCLES  200
ISOTOPES TRUE
SOLVENT_METHOD  PCM
$end

$isotopes
1 0
1
 21 2.0141018
$end

$PCM
THEORY                     CPCM
METHOD                     SWIG
SOLVER                     INVERSION
HPOINTS                    302
HEAVYPOINTS                302
$END

$SOLVENT
DIELECTRIC                 4.71
$END
--------------------------------------------------------------

             Standard Nuclear Orientation (Angstroms)
    I     Atom           X                Y                Z
 ----------------------------------------------------------------
    1      C       0.4840677973    11.8632489744    20.4290796794
    2      C       0.4255113106    10.4397943723    19.8453593966
    3      C       1.5125092573     9.5393161036    20.4583883674
    4      C       1.4279234570     9.5242721715    21.9938575271
    5      C       1.4847916804    10.9443449772    22.5787906281
    6      C       0.4001604849    11.8433109371    21.9644771408
    7      H       1.4143031918     8.5231275195    20.0560052182
    8      H      -0.5577977376    10.0079329999    20.0574347662
    9      H       1.4293584415    12.3347501117    20.1189432478
   10      H      -0.3298671966    12.4646766911    20.0049450814
   11      H       0.4858073206     9.0442684212    22.2983966345
   12      H       2.2401124244     8.9090465436    22.4022703625
   13      H       1.3723938309    10.9081398644    23.6703590047
   14      H       2.4749718351    11.3806872741    22.3768067092
   15      H      -0.5911908025    11.4738375807    22.2669721917
   16      H       0.4857251910    12.8665385197    22.3526227572
   17      H       2.5004862731     9.9146446441    20.1494659527
   18      N       0.5420636768    10.4691260569    18.3841031889
   19      H       1.4158821329    10.7985091650    17.9867828823
   20      C      -0.4248684833    10.1084752074    17.5160193113
   21      H      -0.1118884408    10.2177544999    16.4636676442
   22      O      -1.5504556451     9.6941973646    17.8152523080
 ----------------------------------------------------------------

   11    -404.5984460668      8.53e-09  Convergence criterion met
 Total energy in the final basis set =     -404.5984460668

                    Orbital Energies (a.u.)
 --------------------------------------------------------------

 Alpha MOs
 -- Occupied --
-19.1324 -14.3721 -10.2932 -10.2267 -10.1853 -10.1848 -10.1824 -10.1822
-10.1805  -1.0384  -0.9333  -0.8265  -0.7445  -0.7434  -0.6383  -0.6135
 -0.5935  -0.5653  -0.5275  -0.4846  -0.4619  -0.4441  -0.4393  -0.4195
 -0.4179  -0.3974  -0.3808  -0.3747  -0.3495  -0.3458  -0.3242  -0.3144
 -0.3113  -0.2684  -0.2606

          Ground-State Mulliken Net Atomic Charges

     Atom                 Charge (a.u.)
  ----------------------------------------
      1 C                    -0.265801
      2 C                    -0.449783
      3 C                    -0.283554
      4 C                    -0.446248
      5 C                    -0.382957
      6 C                    -0.448765
      7 H                     0.211839
      8 H                     0.232045
      9 H                     0.208836
     10 H                     0.211364
     11 H                     0.207590
     12 H                     0.202190
     13 H                     0.199108
     14 H                     0.200954
     15 H                     0.207537
     16 H                     0.202193
     17 H                     0.208739
     18 N                    -0.384683
     19 H                     0.439000
     20 C                     0.342931
     21 H                     0.174860
     22 O                    -0.587395
  ----------------------------------------
  Sum of atomic charges =     0.000000

                    Cartesian Multipole Moments
 -----------------------------------------------------------------
    Charge (ESU x 10^10)
                -0.0000
    Dipole Moment (Debye)
         X       5.0655      Y       1.9040      Z       1.1451
       Tot       5.5314
    Quadrupole Moments (Debye-Ang)
        XX     -60.9920     XY      50.5634     YY     -18.3715
        XZ      91.2614     YZ      46.1062     ZZ      -9.1842

 Frequency:       -12.45                  95.74                 189.34
 Force Cnst:      0.0004                 0.0200                 0.0464
 Red. Mass:       4.7897                 3.7027                 2.1963
 IR Intens:       12.644                  8.459                 54.193
 Frequency:       208.85                 227.56                 333.78
 Force Cnst:      0.0916                 0.0545                 0.1239
 Red. Mass:       3.5623                 1.7852                 1.8873
 IR Intens:       10.983                  0.148                  0.123
 Frequency:       397.96                 406.90                 449.26
 Force Cnst:      0.3354                 0.3682                 0.2673
 Red. Mass:       3.5944                 3.7747                 2.2479
 IR Intens:       12.168                 29.675                  0.628
 Frequency:       463.00                 532.24                 586.30
 Force Cnst:      0.4648                 0.2690                 0.2323
 Red. Mass:       3.6798                 1.6118                 1.1472
 IR Intens:        9.893                  2.128                 87.070
 Frequency:       744.90                 799.40                 822.00
 Force Cnst:      1.3676                 0.5424                 0.9746
 Red. Mass:       4.1832                 1.4405                 2.4481
 IR Intens:        5.340                  0.154                  0.784
 Frequency:       850.06                 902.46                 917.17
 Force Cnst:      0.8512                 0.8879                 0.9702
 Red. Mass:       1.9994                 1.8504                 1.9576
 IR Intens:        2.302                 14.291                  0.978
 Frequency:       936.00                 965.00                1024.83
 Force Cnst:      0.7748                 1.2905                 0.9856
 Red. Mass:       1.5010                 2.3522                 1.5928
 IR Intens:        0.519                  6.580                  0.041
 Frequency:      1036.52                1064.63                1070.83
 Force Cnst:      1.1211                 0.9319                 2.4783
 Red. Mass:       1.7712                 1.3955                 3.6683
 IR Intens:        2.453                  2.328                 17.674
 Frequency:      1092.66                1103.60                1175.02
 Force Cnst:      0.8136                 1.7934                 1.8797
 Red. Mass:       1.1566                 2.4992                 2.3107
 IR Intens:        0.018                  1.898                  4.548
 Frequency:      1211.68                1236.91                1276.29
 Force Cnst:      1.2787                 1.6204                 1.2697
 Red. Mass:       1.4782                 1.7976                 1.3230
 IR Intens:        1.380                 72.112                 15.989
 Frequency:      1289.62                1296.69                1343.08
 Force Cnst:      1.2377                 1.3608                 1.3623
 Red. Mass:       1.2631                 1.3737                 1.2818
 IR Intens:        2.755                  9.803                  2.769
 Frequency:      1345.48                1375.63                1383.92
 Force Cnst:      1.3156                 1.5443                 1.5192
 Red. Mass:       1.2334                 1.3851                 1.3463
 IR Intens:       13.526                  1.268                  0.653
 Frequency:      1386.01                1388.45                1405.37
 Force Cnst:      1.7037                 1.6879                 1.7223
 Red. Mass:       1.5053                 1.4860                 1.4800
 IR Intens:        0.019                 10.114                  1.059
 Frequency:      1428.14                1496.06                1498.88
 Force Cnst:      1.4901                 1.4346                 1.4432
 Red. Mass:       1.2400                 1.0878                 1.0903
 IR Intens:       47.038                  0.134                  4.705
 Frequency:      1501.71                1503.01                1515.50
 Force Cnst:      1.4589                 1.4500                 1.4900
 Red. Mass:       1.0980                 1.0894                 1.1011
 IR Intens:        7.198                 11.953                  0.530
 Frequency:      1557.69                1710.78                3012.04
 Force Cnst:      2.6557                10.2585                 5.7082
 Red. Mass:       1.8577                 5.9490                 1.0679
 IR Intens:      292.671                699.372                 29.589
 Frequency:      3013.38                3016.30                3019.87
 Force Cnst:      5.7148                 5.7362                 5.7104
 Red. Mass:       1.0682                 1.0701                 1.0628
 IR Intens:       32.649                 22.736                 14.355
 Frequency:      3020.45                3021.42                3062.93
 Force Cnst:      5.8331                 5.7063                 6.0451
 Red. Mass:       1.0852                 1.0609                 1.0936
 IR Intens:      140.591                107.725                109.266
 Frequency:      3064.26                3068.03                3069.71
 Force Cnst:      6.0710                 6.0908                 6.0831
 Red. Mass:       1.0974                 1.0983                 1.0957
 IR Intens:      107.329                 76.405                 74.079
 Frequency:      3071.34                3097.83                3583.10
 Force Cnst:      6.1051                 6.1513                 8.1565
 Red. Mass:       1.0985                 1.0879                 1.0783
 IR Intens:       49.095                 46.303                 48.499
 Frequency:       -12.44                  95.07                 169.42
 Force Cnst:      0.0004                 0.0198                 0.0470
 Red. Mass:       4.7985                 3.7232                 2.7788
 IR Intens:       12.623                  8.230                 43.708
 Frequency:       208.55                 227.55                 333.58
 Force Cnst:      0.0922                 0.0544                 0.1244
 Red. Mass:       3.5962                 1.7845                 1.8969
 IR Intens:       10.077                  0.092                  0.107
 Frequency:       392.94                 400.61                 449.08
 Force Cnst:      0.3357                 0.3864                 0.2695
 Red. Mass:       3.6903                 4.0863                 2.2679
 IR Intens:       11.406                 20.065                  0.666
 Frequency:       459.14                 529.68                 576.24
 Force Cnst:      0.4327                 0.2665                 0.2222
 Red. Mass:       3.4838                 1.6120                 1.1357
 IR Intens:        2.842                  1.745                107.617
 Frequency:       735.48                 799.40                 819.90
 Force Cnst:      1.3192                 0.5423                 0.9607
 Red. Mass:       4.1392                 1.4404                 2.4255
 IR Intens:        5.093                  0.152                  0.570
 Frequency:       849.02                 861.87                 902.51
 Force Cnst:      0.8637                 1.7677                 0.8847
 Red. Mass:       2.0336                 4.0391                 1.8436
 IR Intens:        2.706                  0.718                 14.127
 Frequency:       914.79                 936.13                 942.16
 Force Cnst:      1.0099                 0.7766                 1.1792
 Red. Mass:       2.0482                 1.5041                 2.2547
 IR Intens:        1.732                  0.592                  5.763
 Frequency:      1021.72                1036.98                1063.92
 Force Cnst:      1.4169                 1.1436                 0.9403
 Red. Mass:       2.3036                 1.8051                 1.4099
 IR Intens:        6.186                  1.661                  2.054
 Frequency:      1092.59                1103.15                1119.76
 Force Cnst:      0.8066                 1.8274                 2.4402
 Red. Mass:       1.1468                 2.5487                 3.3030
 IR Intens:        0.016                  1.694                 23.038
 Frequency:      1179.34                1211.22                1240.60
 Force Cnst:      2.0741                 1.2781                 1.8851
 Red. Mass:       2.5311                 1.4786                 2.0789
 IR Intens:       16.312                  1.143                 54.334
 Frequency:      1275.82                1289.61                1295.70
 Force Cnst:      1.2653                 1.2378                 1.3462
 Red. Mass:       1.3194                 1.2632                 1.3610
 IR Intens:       13.250                  2.718                  6.310
 Frequency:      1342.76                1344.64                1375.59
 Force Cnst:      1.3430                 1.3173                 1.5441
 Red. Mass:       1.2642                 1.2366                 1.3850
 IR Intens:        4.776                  9.048                  1.228
 Frequency:      1383.85                1386.00                1388.44
 Force Cnst:      1.5193                 1.7026                 1.6874
 Red. Mass:       1.3465                 1.5043                 1.4856
 IR Intens:        0.591                  0.016                 10.031
 Frequency:      1404.85                1496.06                1498.88
 Force Cnst:      1.7108                 1.4346                 1.4431
 Red. Mass:       1.4713                 1.0878                 1.0902
 IR Intens:        0.800                  0.136                  4.814
 Frequency:      1501.71                1503.01                1515.46
 Force Cnst:      1.4589                 1.4500                 1.4903
 Red. Mass:       1.0980                 1.0894                 1.1014
 IR Intens:        7.175                 11.751                  0.745
 Frequency:      1551.68                1688.61                2231.88
 Force Cnst:      2.4937                14.5729                 7.0409
 Red. Mass:       1.7579                 8.6744                 2.3990
 IR Intens:      242.759                780.539                101.348
 Frequency:      3012.04                3013.38                3016.39
 Force Cnst:      5.7082                 5.7148                 5.7345
 Red. Mass:       1.0679                 1.0682                 1.0697
 IR Intens:       29.869                 31.943                 37.053
 Frequency:      3019.87                3021.42                3062.93
 Force Cnst:      5.7101                 5.7062                 6.0451
 Red. Mass:       1.0627                 1.0609                 1.0936
 IR Intens:       14.322                112.113                111.137
 Frequency:      3064.26                3068.03                3069.70
 Force Cnst:      6.0710                 6.0910                 6.0829
 Red. Mass:       1.0974                 1.0983                 1.0956
 IR Intens:      107.333                 76.124                 73.134
 Frequency:      3071.34                3097.79                3583.05
 Force Cnst:      6.1051                 6.1512                 8.1561
 Red. Mass:       1.0985                 1.0879                 1.0783
 IR Intens:       49.038                 48.579                 49.022

 STANDARD THERMODYNAMIC QUANTITIES AT   298.18 K  AND     1.00 ATM

   This Molecule has  1 Imaginary Frequencies
   Zero point vibrational energy:      121.867 kcal/mol

   Atom    1 Element C  Has Mass   12.00000
   Atom    2 Element C  Has Mass   12.00000
   Atom    3 Element C  Has Mass   12.00000
   Atom    4 Element C  Has Mass   12.00000
   Atom    5 Element C  Has Mass   12.00000
   Atom    6 Element C  Has Mass   12.00000
   Atom    7 Element H  Has Mass    1.00783
   Atom    8 Element H  Has Mass    1.00783
   Atom    9 Element H  Has Mass    1.00783
   Atom   10 Element H  Has Mass    1.00783
   Atom   11 Element H  Has Mass    1.00783
   Atom   12 Element H  Has Mass    1.00783
   Atom   13 Element H  Has Mass    1.00783
   Atom   14 Element H  Has Mass    1.00783
   Atom   15 Element H  Has Mass    1.00783
   Atom   16 Element H  Has Mass    1.00783
   Atom   17 Element H  Has Mass    1.00783
   Atom   18 Element N  Has Mass   14.00307
   Atom   19 Element H  Has Mass    1.00783
   Atom   20 Element C  Has Mass   12.00000
   Atom   21 Element H  Has Mass    2.01410
   Atom   22 Element O  Has Mass   15.99491
   Molecular Mass:   128.106042 amu
   Principal axes and moments of inertia in amu*Bohr^2:
                             1           2           3
    Eigenvalues --      538.45637  2027.42615  2227.89304
          X               0.39087    -0.42821     0.81477
          Y               0.16083     0.90335     0.39761
          Z               0.90629     0.02438    -0.42196
   Rotational Symmetry Number is   1
   The Molecule is an Asymmetric Top
   Translational Enthalpy:        0.889 kcal/mol
   Rotational Enthalpy:           0.889 kcal/mol
   Vibrational Enthalpy:        125.155 kcal/mol
   gas constant (RT):             0.593 kcal/mol
   Translational Entropy:        40.457  cal/mol.K
   Rotational Entropy:           29.277  cal/mol.K
   Vibrational Entropy:          18.141  cal/mol.K

   Total Enthalpy:              127.525 kcal/mol
   Total Entropy:                87.874  cal/mol.K

 Total job time:  884.56s(wall), 12262.65s(cpu)
        *  Thank you very much for using Q-Chem.  Have a nice day.  *
