 Q-Chem 5.2 (devel), Q-Chem, Inc., Pleasanton, CA (2019)
 Q-Chem 5.2.2 for Intel X86 EM64T Linux

User input:
--------------------------------------------------------------
$molecule
0 1
C    0.58000    11.83000   20.41000
C    0.42000    10.41000   19.83000
C    1.53000    9.53000    20.44000
C    1.44000    9.53000    21.98000
C    1.37000    10.92000   22.65000
C    0.42000    11.90000   21.94000
H    1.49000    8.50000    20.05000
H    -0.52000   10.00000   20.20000
H    1.40000    12.47000   20.08000
H    -0.28000   12.43000   20.08000
H    0.54000    9.00000    22.28000
H    2.32000    8.99000    22.34000
H    1.27000    10.83000   23.73000
H    2.37000    11.32000   22.50000
H    -0.63000   11.62000   22.11000
H    0.56000    12.91000   22.33000
H    2.51000    9.84000    20.07000
N    0.54000    10.41000   18.38000
H    1.39000    10.78000   17.99000
C    -0.47000   10.09000   17.50000
H    -0.16000   10.30000   16.46000
O    -1.56000   9.66000    17.84000
$end

$rem
JOBTYPE  OPT
METHOD  B3LYP
BASIS  6-31+G(D)
SYMMETRY  FALSE
SYM_IGNORE  FALSE
MEM_TOTAL  8000
MEM_STATIC  2000
MAX_SUB_FILE_NUM  16000
BASIS_LIN_DEP_THRESH  6
THRESH  14
SCF_CONVERGENCE  8
GEN_SCFMAN  TRUE
SCF_GUESS  SAD
FD_MAT_VEC_PROD  FALSE
XC_GRID  000099000590
NL_GRID  1
MAX_SCF_CYCLES  200
GEOM_OPT_TOL_GRADIENT  100
GEOM_OPT_TOL_DISPLACEMENT  100
GEOM_OPT_TOL_ENERGY  10
SOLVENT_METHOD       PCM
$end

$PCM
THEORY                     CPCM
METHOD                     SWIG
SOLVER                     INVERSION
HPOINTS                    302
HEAVYPOINTS                302
$END

$SOLVENT
DIELECTRIC                 1.88
$END

--------------------------------------------------------------

   13    -404.5743443636      7.94e-09  Convergence criterion met
 Total energy in the final basis set =     -404.5743443636
   11    -404.5848667721      5.03e-09  Convergence criterion met
 Total energy in the final basis set =     -404.5848667721
   11    -404.5904616835      5.13e-09  Convergence criterion met
 Total energy in the final basis set =     -404.5904616835
   11    -404.5922579029      5.21e-09  Convergence criterion met
 Total energy in the final basis set =     -404.5922579029
   11    -404.5930731264      5.06e-09  Convergence criterion met
 Total energy in the final basis set =     -404.5930731264
   11    -404.5932163086      4.40e-09  Convergence criterion met
 Total energy in the final basis set =     -404.5932163086
   11    -404.5932269050      4.59e-09  Convergence criterion met
 Total energy in the final basis set =     -404.5932269050
   11    -404.5932304512      4.62e-09  Convergence criterion met
 Total energy in the final basis set =     -404.5932304512
   11    -404.5932318705      4.65e-09  Convergence criterion met
 Total energy in the final basis set =     -404.5932318705
   11    -404.5932321392      4.64e-09  Convergence criterion met
 Total energy in the final basis set =     -404.5932321392
   11    -404.5932321887      4.64e-09  Convergence criterion met
 Total energy in the final basis set =     -404.5932321887
 Final energy is   -404.593232188668
 **  OPTIMIZATION CONVERGED  **
 Total job time:  779.55s(wall), 10712.61s(cpu)
        *  Thank you very much for using Q-Chem.  Have a nice day.  *

User input: 2 of 2

                  Welcome to Q-Chem
     A Quantum Leap Into The Future Of Chemistry

 Q-Chem 5.2 (devel), Q-Chem, Inc., Pleasanton, CA (2019)

 Yihan Shao,  Zhengting Gan,  E. Epifanovsky,  A. T. B. Gilbert,  M. Wormit,
 J. Kussmann,  A. W. Lange,  A. Behn,  Jia Deng,  Xintian Feng,  D. Ghosh,
 M. Goldey,  P. R. Horn,  L. D. Jacobson,  I. Kaliman,  T. Kus,  A. Landau,
 Jie Liu,  E. I. Proynov,  R. M. Richard,  R. P. Steele,  E. J. Sundstrom,
 H. L. Woodcock III,  P. M. Zimmerman,  D. Zuev,  B. Alam,  B. Albrecht,
 E. Alguire,  S. A. Baeppler,  D. Barton,  Z. Benda,  Y. A. Bernard,
 E. J. Berquist,  K. B. Bravaya,  H. Burton,  K. Carter-Fenk,  D. Casanova,
 Chun-Min Chang,  Yunqing Chen,  A. Chien,  K. D. Closser,  M. P. Coons,
 S. Coriani,  S. Dasgupta,  A. L. Dempwolff,  M. Diedenhofen,  Hainam Do,
 R. G. Edgar,  Po-Tung Fang,  S. Faraji,  S. Fatehi,  Qingguo Feng,
 J. Fosso-Tande,  J. Gayvert,  Qinghui Ge,  A. Ghysels,  G. Gidofalvi,
 J. Gomes,  J. Gonthier,  A. Gunina,  D. Hait,  M. W. D. Hanson-Heine,
 P. H. P. Harbach,  A. W. Hauser,  M. F. Herbst,  J. E. Herr,
 E. G. Hohenstein,  Z. C. Holden,  Kerwin Hui,  B. C. Huynh,  T.-C. Jagau,
 Hyunjun Ji,  B. Kaduk,  K. Khistyaev,  Jaehoon Kim,  P. Klunzinger,  K. Koh,
 D. Kosenkov,  L. Koulias,  T. Kowalczyk,  C. M. Krauter,  A. Kunitsa,
 Ka Un Lao,  A. Laurent,  K. V. Lawler,  Joonho Lee,  D. Lefrancois,
 S. Lehtola,  D. S. Levine,  Yi-Pei Li,  You-Sheng Lin,  Fenglai Liu,
 Kuan-Yu Liu,  E. Livshits,  M. Loipersberger,  A. Luenser,  P. Manohar,
 E. Mansoor,  S. F. Manzer,  Shan-Ping Mao,  Yuezhi Mao,  N. Mardirossian,
 A. V. Marenich,  T. Markovich,  L. A. Martinez-Martinez,  S. A. Maurer,
 N. J. Mayhall,  S. C. McKenzie,  J.-M. Mewes,  P. Morgante,  A. F. Morrison,
 J. W. Mullinax,  K. Nanda,  T. S. Nguyen-Beck,  R. Olivares-Amaya,
 J. A. Parkhill,  S. K. Paul,  F. Pavosevic,  Zheng Pei,  T. M. Perrine,
 F. Plasser,  P. Pokhilko,  S. Prager,  A. Prociuk,  E. Ramos,  B. Rana,
 D. R. Rehn,  F. Rob,  M. Scheurer,  M. Schneider,  N. Sergueev,
 S. M. Sharada,  S. Sharma,  D. W. Small,  T. Stauch,  C. J. Stein,
 T. Stein,  Yu-Chuan Su,  S. P. Veccham,  Zhen Tao,  A. J. W. Thom,
 A. Tkatchenko,  T. Tsuchimochi,  N. M. Tubman,  L. Vogt,  M. L. Vidal,
 O. Vydrov,  M. A. Watson,  J. Wenzel,  M. de Wergifosse,  T. A. Wesolowski,
 A. White,  J. Witte,  A. Yamada,  Jun Yang,  K. Yao,  S. Yeganeh,
 S. R. Yost,  Zhi-Qiang You,  A. Zech,  Igor Ying Zhang,  Xing Zhang,
 Yan Zhao,  Ying Zhu,  B. R. Brooks,  G. K. L. Chan,  C. J. Cramer,
 M. S. Gordon,  W. J. Hehre,  A. Klamt,  M. W. Schmidt,  C. D. Sherrill,
 D. G. Truhlar,  A. Aspuru-Guzik,  R. Baer,  A. T. Bell,  N. A. Besley,
 Jeng-Da Chai,  A. E. DePrince, III,  R. A. DiStasio Jr.,  A. Dreuw,
 B. D. Dunietz,  T. R. Furlani,  Chao-Ping Hsu,  Yousung Jung,  Jing Kong,
 D. S. Lambrecht,  WanZhen Liang,  C. Ochsenfeld,  V. A. Rassolov,
 L. V. Slipchenko,  J. E. Subotnik,  T. Van Voorhis,  J. M. Herbert,
 A. I. Krylov,  P. M. W. Gill,  M. Head-Gordon

 Contributors to earlier versions of Q-Chem not listed above:
 R. D. Adamson,  B. Austin,  J. Baker,  G. J. O. Beran,  K. Brandhorst,
 S. T. Brown,  E. F. C. Byrd,  A. K. Chakraborty,  C.-L. Cheng,
 Siu Hung Chien,  D. M. Chipman,  D. L. Crittenden,  H. Dachsel,
 R. J. Doerksen,  A. D. Dutoi,  L. Fusti-Molnar,  W. A. Goddard III,
 A. Golubeva-Zadorozhnaya,  S. R. Gwaltney,  G. Hawkins,  A. Heyden,
 S. Hirata,  G. Kedziora,  F. J. Keil,  C. Kelley,  Jihan Kim,  R. A. King,
 R. Z. Khaliullin,  P. P. Korambath,  W. Kurlancheek,  A. M. Lee,  M. S. Lee,
 S. V. Levchenko,  Ching Yeh Lin,  D. Liotard,  R. C. Lochan,  I. Lotan,
 P. E. Maslen,  N. Nair,  D. P. O'Neill,  D. Neuhauser,  E. Neuscamman,
 C. M. Oana,  R. Olson,  B. Peters,  R. Peverati,  P. A. Pieniazek,
 Y. M. Rhee,  J. Ritchie,  M. A. Rohrdanz,  E. Rosta,  N. J. Russ,
 H. F. Schaefer III,  N. E. Schultz,  N. Shenvi,  A. C. Simmonett,  A. Sodt,
 D. Stuck,  K. S. Thanthiriwatte,  V. Vanovschi,  Tao Wang,  A. Warshel,
 C. F. Williams,  Q. Wu,  X. Xu,  W. Zhang

 Please cite Q-Chem as follows:
 Y. Shao et al., Mol. Phys. 113, 184-215 (2015)
 DOI: 10.1080/00268976.2014.952696

 Q-Chem 5.2.2 for Intel X86 EM64T Linux

 Parts of Q-Chem use Armadillo 9.800.1 (Horizon Scraper).
 http://arma.sourceforge.net/

 Q-Chem begins on Thu Apr  8 15:21:48 2021

Host: node029
0

     Scratch files written to /home/ymao90/scratch/probe_b3lyp_hexane20210408150848//
The previous job contains 0 fragments, simply inherited here
Symmetry turned off for PCM/SM12/SMD calculation

Checking the input file for inconsistencies... 	...done.

--------------------------------------------------------------
User input:
--------------------------------------------------------------

$molecule
read
$end

$rem
JOBTYPE  FREQ
METHOD  B3LYP
BASIS  6-31+G(D)
SYMMETRY  FALSE
SYM_IGNORE  FALSE
MEM_TOTAL  8000
MEM_STATIC  2000
MAX_SUB_FILE_NUM  16000
BASIS_LIN_DEP_THRESH  6
THRESH  14
SCF_CONVERGENCE  8
GEN_SCFMAN  TRUE
SCF_GUESS  READ
FD_MAT_VEC_PROD  FALSE
XC_GRID  000099000590
NL_GRID  1
MAX_SCF_CYCLES  200
ISOTOPES TRUE
SOLVENT_METHOD  PCM
$end

$isotopes
1 0
1
 21 2.0141018
$end

$PCM
THEORY                     CPCM
METHOD                     SWIG
SOLVER                     INVERSION
HPOINTS                    302
HEAVYPOINTS                302
$END

$SOLVENT
DIELECTRIC                 1.88
$END
--------------------------------------------------------------

             Standard Nuclear Orientation (Angstroms)
    I     Atom           X                Y                Z
 ----------------------------------------------------------------
    1      C       0.4868036764    11.8632613211    20.4277676700
    2      C       0.4318087605    10.4404371683    19.8420499334
    3      C       1.5170396061     9.5402556369    20.4586048618
    4      C       1.4282094056     9.5240584629    21.9938423788
    5      C       1.4813803541    10.9436454789    22.5802638110
    6      C       0.3984828986    11.8425814919    21.9629007164
    7      H       1.4209902004     8.5246279527    20.0546675827
    8      H      -0.5522034252    10.0078796847    20.0500085321
    9      H       1.4323053219    12.3381192531    20.1216887478
   10      H      -0.3261526412    12.4637583168    20.0009356319
   11      H       0.4859719829     9.0422979220    22.2949442079
   12      H       2.2391565569     8.9091103973    22.4050896849
   13      H       1.3655879470    10.9064980003    23.6713662444
   14      H       2.4722236204    11.3811236895    22.3833613855
   15      H      -0.5938002958    11.4730385776    22.2619454092
   16      H       0.4817205643    12.8653316583    22.3527473439
   17      H       2.5072485323     9.9148931866    20.1541291439
   18      N       0.5469215691    10.4679103638    18.3816296110
   19      H       1.4195659146    10.7923289254    17.9795069403
   20      C      -0.4337801959    10.1093130741    17.5193474002
   21      H      -0.1261084522    10.2146325320    16.4632940449
   22      O      -1.5533719008     9.7048969058    17.8299087182
 ----------------------------------------------------------------

   11    -404.5932321882      4.63e-09  Convergence criterion met
 Total energy in the final basis set =     -404.5932321882

                    Orbital Energies (a.u.)
 --------------------------------------------------------------

 Alpha MOs
 -- Occupied --
-19.1295 -14.3729 -10.2923 -10.2291 -10.1897 -10.1887 -10.1868 -10.1863
-10.1850  -1.0380  -0.9340  -0.8300  -0.7476  -0.7472  -0.6406  -0.6176
 -0.5961  -0.5688  -0.5294  -0.4863  -0.4640  -0.4478  -0.4425  -0.4205
 -0.4174  -0.4006  -0.3847  -0.3764  -0.3529  -0.3502  -0.3284  -0.3185
 -0.3147  -0.2651  -0.2604

          Ground-State Mulliken Net Atomic Charges

     Atom                 Charge (a.u.)
  ----------------------------------------
      1 C                    -0.254319
      2 C                    -0.484346
      3 C                    -0.275074
      4 C                    -0.436218
      5 C                    -0.384937
      6 C                    -0.438696
      7 H                     0.212368
      8 H                     0.237840
      9 H                     0.201725
     10 H                     0.212384
     11 H                     0.206822
     12 H                     0.200559
     13 H                     0.198368
     14 H                     0.198330
     15 H                     0.206868
     16 H                     0.200602
     17 H                     0.201305
     18 N                    -0.381990
     19 H                     0.418867
     20 C                     0.338565
     21 H                     0.160381
     22 O                    -0.539401
  ----------------------------------------
  Sum of atomic charges =     0.000000

                    Cartesian Multipole Moments
 -----------------------------------------------------------------
    Charge (ESU x 10^10)
                -0.0000
    Dipole Moment (Debye)
         X       4.4618      Y       1.6516      Z       1.0792
       Tot       4.8785
    Quadrupole Moments (Debye-Ang)
        XX     -60.8410     XY      44.4400     YY     -23.5109
        XZ      80.2177     YZ      40.8189     ZZ     -11.7792

 Frequency:       -11.72                  98.39                 184.28
 Force Cnst:      0.0004                 0.0208                 0.0429
 Red. Mass:       4.7855                 3.6447                 2.1444
 IR Intens:        9.545                  6.668                 46.853
 Frequency:       210.44                 227.91                 334.18
 Force Cnst:      0.0943                 0.0546                 0.1243
 Red. Mass:       3.6144                 1.7846                 1.8897
 IR Intens:        9.449                  0.106                  0.122
 Frequency:       397.39                 403.41                 449.02
 Force Cnst:      0.3403                 0.3683                 0.2664
 Red. Mass:       3.6569                 3.8410                 2.2428
 IR Intens:       14.631                 23.159                  0.513
 Frequency:       461.19                 533.30                 562.85
 Force Cnst:      0.4524                 0.2707                 0.2145
 Red. Mass:       3.6099                 1.6152                 1.1490
 IR Intens:        7.506                  1.944                 63.983
 Frequency:       745.72                 799.83                 823.04
 Force Cnst:      1.3612                 0.5433                 0.9828
 Red. Mass:       4.1544                 1.4414                 2.4626
 IR Intens:        4.507                  0.136                  0.674
 Frequency:       850.70                 903.65                 918.28
 Force Cnst:      0.8564                 0.9027                 0.9708
 Red. Mass:       2.0086                 1.8763                 1.9539
 IR Intens:        1.538                 10.823                  0.693
 Frequency:       936.71                 966.34                1020.41
 Force Cnst:      0.7707                 1.2975                 0.9813
 Red. Mass:       1.4909                 2.3584                 1.5995
 IR Intens:        0.481                  5.281                  0.069
 Frequency:      1038.31                1066.92                1072.66
 Force Cnst:      1.1325                 0.9405                 2.4514
 Red. Mass:       1.7829                 1.4023                 3.6161
 IR Intens:        2.013                  1.879                 11.840
 Frequency:      1094.78                1103.82                1175.99
 Force Cnst:      0.8261                 1.7941                 1.8503
 Red. Mass:       1.1698                 2.4991                 2.2709
 IR Intens:        0.041                  1.651                  1.808
 Frequency:      1214.39                1227.13                1278.99
 Force Cnst:      1.2777                 1.6648                 1.2843
 Red. Mass:       1.4705                 1.8764                 1.3326
 IR Intens:        1.445                 84.708                 15.067
 Frequency:      1292.57                1297.22                1344.68
 Force Cnst:      1.2427                 1.3247                 1.3693
 Red. Mass:       1.2624                 1.3361                 1.2853
 IR Intens:        2.771                  7.104                  2.681
 Frequency:      1347.79                1377.33                1385.49
 Force Cnst:      1.3208                 1.5475                 1.5148
 Red. Mass:       1.2340                 1.3845                 1.3393
 IR Intens:       14.812                  1.015                  0.633
 Frequency:      1389.17                1390.94                1406.96
 Force Cnst:      1.7005                 1.6861                 1.7275
 Red. Mass:       1.4956                 1.4791                 1.4812
 IR Intens:        0.203                  8.490                  1.426
 Frequency:      1429.30                1499.53                1503.07
 Force Cnst:      1.4718                 1.4405                 1.4549
 Red. Mass:       1.2228                 1.0873                 1.0930
 IR Intens:       23.048                  0.189                  3.783
 Frequency:      1505.68                1508.30                1520.90
 Force Cnst:      1.4651                 1.4553                 1.5017
 Red. Mass:       1.0969                 1.0858                 1.1019
 IR Intens:        6.386                 12.947                  0.831
 Frequency:      1552.79                1739.34                2998.76
 Force Cnst:      2.5942                11.8429                 5.7510
 Red. Mass:       1.8261                 6.6441                 1.0855
 IR Intens:      242.238                555.579                120.523
 Frequency:      3006.67                3010.96                3013.41
 Force Cnst:      5.6926                 5.7030                 5.7314
 Red. Mass:       1.0688                 1.0677                 1.0713
 IR Intens:       19.168                 45.843                 34.878
 Frequency:      3021.36                3023.21                3064.22
 Force Cnst:      5.7191                 5.7160                 6.0440
 Red. Mass:       1.0633                 1.0615                 1.0925
 IR Intens:       17.721                 73.348                 94.283
 Frequency:      3065.44                3069.52                3071.49
 Force Cnst:      6.0797                 6.1064                 6.0793
 Red. Mass:       1.0981                 1.1000                 1.0937
 IR Intens:       79.916                 68.958                 46.660
 Frequency:      3073.42                3098.13                3587.16
 Force Cnst:      6.0979                 6.1536                 8.1725
 Red. Mass:       1.0957                 1.0881                 1.0780
 IR Intens:       45.061                 31.794                 28.312
 Frequency:       -11.71                  97.72                 164.79
 Force Cnst:      0.0004                 0.0206                 0.0437
 Red. Mass:       4.7935                 3.6654                 2.7314
 IR Intens:        9.530                  6.493                 37.417
 Frequency:       210.17                 227.90                 333.99
 Force Cnst:      0.0946                 0.0546                 0.1248
 Red. Mass:       3.6359                 1.7841                 1.8988
 IR Intens:        8.897                  0.070                  0.106
 Frequency:       392.15                 398.14                 448.84
 Force Cnst:      0.3466                 0.3793                 0.2687
 Red. Mass:       3.8250                 4.0612                 2.2636
 IR Intens:       12.347                 15.995                  0.546
 Frequency:       458.28                 530.69                 550.21
 Force Cnst:      0.4250                 0.2681                 0.2029
 Red. Mass:       3.4347                 1.6160                 1.1373
 IR Intens:        2.211                  1.604                 82.626
 Frequency:       736.34                 799.83                 820.87
 Force Cnst:      1.3121                 0.5433                 0.9683
 Red. Mass:       4.1072                 1.4413                 2.4391
 IR Intens:        4.280                  0.134                  0.491
 Frequency:       849.62                 859.46                 903.71
 Force Cnst:      0.8697                 1.7627                 0.8992
 Red. Mass:       2.0449                 4.0503                 1.8687
 IR Intens:        1.809                  0.427                 10.724
 Frequency:       915.81                 936.84                 942.20
 Force Cnst:      1.0126                 0.7736                 1.1752
 Red. Mass:       2.0492                 1.4961                 2.2469
 IR Intens:        1.291                  0.554                  4.262
 Frequency:      1021.57                1038.75                1066.39
 Force Cnst:      1.4085                 1.1525                 0.9453
 Red. Mass:       2.2906                 1.8128                 1.4109
 IR Intens:        3.897                  1.418                  1.648
 Frequency:      1094.71                1103.42                1121.12
 Force Cnst:      0.8176                 1.8328                 2.4558
 Red. Mass:       1.1579                 2.5549                 3.3161
 IR Intens:        0.039                  1.481                 19.014
 Frequency:      1180.99                1214.01                1232.33
 Force Cnst:      2.0806                 1.2766                 1.9128
 Red. Mass:       2.5319                 1.4702                 2.1378
 IR Intens:       12.384                  0.868                 64.303
 Frequency:      1278.58                1292.56                1296.53
 Force Cnst:      1.2813                 1.2428                 1.3133
 Red. Mass:       1.3303                 1.2625                 1.3261
 IR Intens:       12.630                  2.741                  4.983
 Frequency:      1344.40                1346.91                1377.30
 Force Cnst:      1.3547                 1.3190                 1.5474
 Red. Mass:       1.2721                 1.2340                 1.3845
 IR Intens:        4.136                 10.758                  0.989
 Frequency:      1385.43                1389.14                1390.92
 Force Cnst:      1.5138                 1.7005                 1.6861
 Red. Mass:       1.3386                 1.4957                 1.4792
 IR Intens:        0.594                  0.183                  8.607
 Frequency:      1406.38                1499.53                1503.06
 Force Cnst:      1.7164                 1.4405                 1.4548
 Red. Mass:       1.4728                 1.0873                 1.0929
 IR Intens:        1.109                  0.191                  3.918
 Frequency:      1505.68                1508.29                1520.83
 Force Cnst:      1.4651                 1.4556                 1.5029
 Red. Mass:       1.0968                 1.0859                 1.1029
 IR Intens:        6.368                 12.790                  1.256
 Frequency:      1547.11                1717.89                2216.84
 Force Cnst:      2.4505                15.2540                 6.9756
 Red. Mass:       1.7376                 8.7729                 2.4092
 IR Intens:      202.417                606.992                102.706
 Frequency:      3006.66                3010.94                3013.40
 Force Cnst:      5.6926                 5.7030                 5.7312
 Red. Mass:       1.0688                 1.0677                 1.0712
 IR Intens:       18.669                 39.726                 34.242
 Frequency:      3021.36                3023.21                3064.22
 Force Cnst:      5.7191                 5.7160                 6.0439
 Red. Mass:       1.0633                 1.0615                 1.0925
 IR Intens:       17.720                 73.374                 95.601
 Frequency:      3065.44                3069.52                3071.48
 Force Cnst:      6.0797                 6.1065                 6.0791
 Red. Mass:       1.0981                 1.1000                 1.0937
 IR Intens:       79.918                 68.653                 46.197
 Frequency:      3073.42                3098.09                3587.11
 Force Cnst:      6.0979                 6.1535                 8.1721
 Red. Mass:       1.0957                 1.0881                 1.0779
 IR Intens:       45.007                 33.347                 28.661

 STANDARD THERMODYNAMIC QUANTITIES AT   298.18 K  AND     1.00 ATM

   This Molecule has  1 Imaginary Frequencies
   Zero point vibrational energy:      121.918 kcal/mol

   Atom    1 Element C  Has Mass   12.00000
   Atom    2 Element C  Has Mass   12.00000
   Atom    3 Element C  Has Mass   12.00000
   Atom    4 Element C  Has Mass   12.00000
   Atom    5 Element C  Has Mass   12.00000
   Atom    6 Element C  Has Mass   12.00000
   Atom    7 Element H  Has Mass    1.00783
   Atom    8 Element H  Has Mass    1.00783
   Atom    9 Element H  Has Mass    1.00783
   Atom   10 Element H  Has Mass    1.00783
   Atom   11 Element H  Has Mass    1.00783
   Atom   12 Element H  Has Mass    1.00783
   Atom   13 Element H  Has Mass    1.00783
   Atom   14 Element H  Has Mass    1.00783
   Atom   15 Element H  Has Mass    1.00783
   Atom   16 Element H  Has Mass    1.00783
   Atom   17 Element H  Has Mass    1.00783
   Atom   18 Element N  Has Mass   14.00307
   Atom   19 Element H  Has Mass    1.00783
   Atom   20 Element C  Has Mass   12.00000
   Atom   21 Element H  Has Mass    2.01410
   Atom   22 Element O  Has Mass   15.99491
   Molecular Mass:   128.106042 amu
   Principal axes and moments of inertia in amu*Bohr^2:
                             1           2           3
    Eigenvalues --      539.54608  2023.94274  2223.80591
          X               0.39174    -0.43169     0.81252
          Y               0.15945     0.90159     0.40213
          Z               0.90615     0.02798    -0.42202
   Rotational Symmetry Number is   1
   The Molecule is an Asymmetric Top
   Translational Enthalpy:        0.889 kcal/mol
   Rotational Enthalpy:           0.889 kcal/mol
   Vibrational Enthalpy:        125.216 kcal/mol
   gas constant (RT):             0.593 kcal/mol
   Translational Entropy:        40.457  cal/mol.K
   Rotational Entropy:           29.275  cal/mol.K
   Vibrational Entropy:          18.177  cal/mol.K

   Total Enthalpy:              127.587 kcal/mol
   Total Entropy:                87.909  cal/mol.K

 Total job time:  885.50s(wall), 12319.43s(cpu)
        *  Thank you very much for using Q-Chem.  Have a nice day.  *
