 Q-Chem 5.2 (devel), Q-Chem, Inc., Pleasanton, CA (2019)
 Q-Chem 5.2.2 for Intel X86 EM64T Linux

User input:
--------------------------------------------------------------
$molecule
0 1
C    0.58000    11.83000   20.41000
C    0.42000    10.41000   19.83000
C    1.53000    9.53000    20.44000
C    1.44000    9.53000    21.98000
C    1.37000    10.92000   22.65000
C    0.42000    11.90000   21.94000
H    1.49000    8.50000    20.05000
H    -0.52000   10.00000   20.20000
H    1.40000    12.47000   20.08000
H    -0.28000   12.43000   20.08000
H    0.54000    9.00000    22.28000
H    2.32000    8.99000    22.34000
H    1.27000    10.83000   23.73000
H    2.37000    11.32000   22.50000
H    -0.63000   11.62000   22.11000
H    0.56000    12.91000   22.33000
H    2.51000    9.84000    20.07000
N    0.54000    10.41000   18.38000
H    1.39000    10.78000   17.99000
C    -0.47000   10.09000   17.50000
H    -0.16000   10.30000   16.46000
O    -1.56000   9.66000    17.84000
$end

$rem
JOBTYPE  OPT
METHOD  B3LYP
BASIS  6-31+G(D)
SYMMETRY  FALSE
SYM_IGNORE  FALSE
MEM_TOTAL  8000
MEM_STATIC  2000
MAX_SUB_FILE_NUM  16000
BASIS_LIN_DEP_THRESH  6
THRESH  14
SCF_CONVERGENCE  8
GEN_SCFMAN  TRUE
SCF_GUESS  SAD
FD_MAT_VEC_PROD  FALSE
XC_GRID  000099000590
NL_GRID  1
MAX_SCF_CYCLES  200
GEOM_OPT_TOL_GRADIENT  100
GEOM_OPT_TOL_DISPLACEMENT  100
GEOM_OPT_TOL_ENERGY  10
SOLVENT_METHOD       PCM
$end

$PCM
THEORY                     CPCM
METHOD                     SWIG
SOLVER                     INVERSION
HPOINTS                    302
HEAVYPOINTS                302
$END

$SOLVENT
DIELECTRIC                 46.83
$END

--------------------------------------------------------------

   13    -404.5826416044      5.64e-09  Convergence criterion met
 Total energy in the final basis set =     -404.5826416044
   12    -404.5934391000      3.03e-09  Convergence criterion met
 Total energy in the final basis set =     -404.5934391000
   12    -404.5992181816      3.10e-09  Convergence criterion met
 Total energy in the final basis set =     -404.5992181816
   12    -404.6010870187      3.27e-09  Convergence criterion met
 Total energy in the final basis set =     -404.6010870187
   12    -404.6019413257      3.39e-09  Convergence criterion met
 Total energy in the final basis set =     -404.6019413257
   12    -404.6020796464      3.45e-09  Convergence criterion met
 Total energy in the final basis set =     -404.6020796464
   12    -404.6020907957      3.42e-09  Convergence criterion met
 Total energy in the final basis set =     -404.6020907957
   12    -404.6020932077      3.42e-09  Convergence criterion met
 Total energy in the final basis set =     -404.6020932077
   12    -404.6020938895      3.42e-09  Convergence criterion met
 Total energy in the final basis set =     -404.6020938895
   12    -404.6020939712      3.42e-09  Convergence criterion met
 Total energy in the final basis set =     -404.6020939712
 Final energy is   -404.602093971153
 **  OPTIMIZATION CONVERGED  **
 Total job time:  737.18s(wall), 10187.71s(cpu)
        *  Thank you very much for using Q-Chem.  Have a nice day.  *

User input: 2 of 2

                  Welcome to Q-Chem
     A Quantum Leap Into The Future Of Chemistry

 Q-Chem 5.2 (devel), Q-Chem, Inc., Pleasanton, CA (2019)

 Yihan Shao,  Zhengting Gan,  E. Epifanovsky,  A. T. B. Gilbert,  M. Wormit,
 J. Kussmann,  A. W. Lange,  A. Behn,  Jia Deng,  Xintian Feng,  D. Ghosh,
 M. Goldey,  P. R. Horn,  L. D. Jacobson,  I. Kaliman,  T. Kus,  A. Landau,
 Jie Liu,  E. I. Proynov,  R. M. Richard,  R. P. Steele,  E. J. Sundstrom,
 H. L. Woodcock III,  P. M. Zimmerman,  D. Zuev,  B. Alam,  B. Albrecht,
 E. Alguire,  S. A. Baeppler,  D. Barton,  Z. Benda,  Y. A. Bernard,
 E. J. Berquist,  K. B. Bravaya,  H. Burton,  K. Carter-Fenk,  D. Casanova,
 Chun-Min Chang,  Yunqing Chen,  A. Chien,  K. D. Closser,  M. P. Coons,
 S. Coriani,  S. Dasgupta,  A. L. Dempwolff,  M. Diedenhofen,  Hainam Do,
 R. G. Edgar,  Po-Tung Fang,  S. Faraji,  S. Fatehi,  Qingguo Feng,
 J. Fosso-Tande,  J. Gayvert,  Qinghui Ge,  A. Ghysels,  G. Gidofalvi,
 J. Gomes,  J. Gonthier,  A. Gunina,  D. Hait,  M. W. D. Hanson-Heine,
 P. H. P. Harbach,  A. W. Hauser,  M. F. Herbst,  J. E. Herr,
 E. G. Hohenstein,  Z. C. Holden,  Kerwin Hui,  B. C. Huynh,  T.-C. Jagau,
 Hyunjun Ji,  B. Kaduk,  K. Khistyaev,  Jaehoon Kim,  P. Klunzinger,  K. Koh,
 D. Kosenkov,  L. Koulias,  T. Kowalczyk,  C. M. Krauter,  A. Kunitsa,
 Ka Un Lao,  A. Laurent,  K. V. Lawler,  Joonho Lee,  D. Lefrancois,
 S. Lehtola,  D. S. Levine,  Yi-Pei Li,  You-Sheng Lin,  Fenglai Liu,
 Kuan-Yu Liu,  E. Livshits,  M. Loipersberger,  A. Luenser,  P. Manohar,
 E. Mansoor,  S. F. Manzer,  Shan-Ping Mao,  Yuezhi Mao,  N. Mardirossian,
 A. V. Marenich,  T. Markovich,  L. A. Martinez-Martinez,  S. A. Maurer,
 N. J. Mayhall,  S. C. McKenzie,  J.-M. Mewes,  P. Morgante,  A. F. Morrison,
 J. W. Mullinax,  K. Nanda,  T. S. Nguyen-Beck,  R. Olivares-Amaya,
 J. A. Parkhill,  S. K. Paul,  F. Pavosevic,  Zheng Pei,  T. M. Perrine,
 F. Plasser,  P. Pokhilko,  S. Prager,  A. Prociuk,  E. Ramos,  B. Rana,
 D. R. Rehn,  F. Rob,  M. Scheurer,  M. Schneider,  N. Sergueev,
 S. M. Sharada,  S. Sharma,  D. W. Small,  T. Stauch,  C. J. Stein,
 T. Stein,  Yu-Chuan Su,  S. P. Veccham,  Zhen Tao,  A. J. W. Thom,
 A. Tkatchenko,  T. Tsuchimochi,  N. M. Tubman,  L. Vogt,  M. L. Vidal,
 O. Vydrov,  M. A. Watson,  J. Wenzel,  M. de Wergifosse,  T. A. Wesolowski,
 A. White,  J. Witte,  A. Yamada,  Jun Yang,  K. Yao,  S. Yeganeh,
 S. R. Yost,  Zhi-Qiang You,  A. Zech,  Igor Ying Zhang,  Xing Zhang,
 Yan Zhao,  Ying Zhu,  B. R. Brooks,  G. K. L. Chan,  C. J. Cramer,
 M. S. Gordon,  W. J. Hehre,  A. Klamt,  M. W. Schmidt,  C. D. Sherrill,
 D. G. Truhlar,  A. Aspuru-Guzik,  R. Baer,  A. T. Bell,  N. A. Besley,
 Jeng-Da Chai,  A. E. DePrince, III,  R. A. DiStasio Jr.,  A. Dreuw,
 B. D. Dunietz,  T. R. Furlani,  Chao-Ping Hsu,  Yousung Jung,  Jing Kong,
 D. S. Lambrecht,  WanZhen Liang,  C. Ochsenfeld,  V. A. Rassolov,
 L. V. Slipchenko,  J. E. Subotnik,  T. Van Voorhis,  J. M. Herbert,
 A. I. Krylov,  P. M. W. Gill,  M. Head-Gordon

 Contributors to earlier versions of Q-Chem not listed above:
 R. D. Adamson,  B. Austin,  J. Baker,  G. J. O. Beran,  K. Brandhorst,
 S. T. Brown,  E. F. C. Byrd,  A. K. Chakraborty,  C.-L. Cheng,
 Siu Hung Chien,  D. M. Chipman,  D. L. Crittenden,  H. Dachsel,
 R. J. Doerksen,  A. D. Dutoi,  L. Fusti-Molnar,  W. A. Goddard III,
 A. Golubeva-Zadorozhnaya,  S. R. Gwaltney,  G. Hawkins,  A. Heyden,
 S. Hirata,  G. Kedziora,  F. J. Keil,  C. Kelley,  Jihan Kim,  R. A. King,
 R. Z. Khaliullin,  P. P. Korambath,  W. Kurlancheek,  A. M. Lee,  M. S. Lee,
 S. V. Levchenko,  Ching Yeh Lin,  D. Liotard,  R. C. Lochan,  I. Lotan,
 P. E. Maslen,  N. Nair,  D. P. O'Neill,  D. Neuhauser,  E. Neuscamman,
 C. M. Oana,  R. Olson,  B. Peters,  R. Peverati,  P. A. Pieniazek,
 Y. M. Rhee,  J. Ritchie,  M. A. Rohrdanz,  E. Rosta,  N. J. Russ,
 H. F. Schaefer III,  N. E. Schultz,  N. Shenvi,  A. C. Simmonett,  A. Sodt,
 D. Stuck,  K. S. Thanthiriwatte,  V. Vanovschi,  Tao Wang,  A. Warshel,
 C. F. Williams,  Q. Wu,  X. Xu,  W. Zhang

 Please cite Q-Chem as follows:
 Y. Shao et al., Mol. Phys. 113, 184-215 (2015)
 DOI: 10.1080/00268976.2014.952696

 Q-Chem 5.2.2 for Intel X86 EM64T Linux

 Parts of Q-Chem use Armadillo 9.800.1 (Horizon Scraper).
 http://arma.sourceforge.net/

 Q-Chem begins on Thu Apr  8 15:21:06 2021

Host: node026
0

     Scratch files written to /home/ymao90/scratch/probe_b3lyp_DMSO20210408150848//
The previous job contains 0 fragments, simply inherited here
Symmetry turned off for PCM/SM12/SMD calculation

Checking the input file for inconsistencies... 	...done.

--------------------------------------------------------------
User input:
--------------------------------------------------------------

$molecule
read
$end

$rem
JOBTYPE  FREQ
METHOD  B3LYP
BASIS  6-31+G(D)
SYMMETRY  FALSE
SYM_IGNORE  FALSE
MEM_TOTAL  8000
MEM_STATIC  2000
MAX_SUB_FILE_NUM  16000
BASIS_LIN_DEP_THRESH  6
THRESH  14
SCF_CONVERGENCE  8
GEN_SCFMAN  TRUE
SCF_GUESS  READ
FD_MAT_VEC_PROD  FALSE
XC_GRID  000099000590
NL_GRID  1
MAX_SCF_CYCLES  200
ISOTOPES TRUE
SOLVENT_METHOD  PCM
$end

$isotopes
1 0
1
 21 2.0141018
$end

$PCM
THEORY                     CPCM
METHOD                     SWIG
SOLVER                     INVERSION
HPOINTS                    302
HEAVYPOINTS                302
$END

$SOLVENT
DIELECTRIC                 46.83
$END
--------------------------------------------------------------

             Standard Nuclear Orientation (Angstroms)
    I     Atom           X                Y                Z
 ----------------------------------------------------------------
    1      C       0.4820015011    11.8631060262    20.4299959018
    2      C       0.4209833970    10.4391872430    19.8477270084
    3      C       1.5092953211     9.5386316696    20.4582963688
    4      C       1.4277944947     9.5244776812    21.9939066043
    5      C       1.4872341459    10.9449221755    22.5776827718
    6      C       0.4012001732    11.8437163998    21.9655427580
    7      H       1.4098185601     8.5220474717    20.0569683159
    8      H      -0.5619217678    10.0077696884    20.0625123063
    9      H       1.4271059411    12.3321290719    20.1169022674
   10      H      -0.3324867199    12.4652570019    20.0076119998
   11      H       0.4859334141     9.0455041444    22.3011869805
   12      H       2.2410164517     8.9092076905    22.4001908231
   13      H       1.3773765818    10.9094652868    23.6695816527
   14      H       2.4768100537    11.3805298472    22.3718694684
   15      H      -0.5894576726    11.4742305393    22.2706617845
   16      H       0.4883058879    12.8672809393    22.3524472782
   17      H       2.4955678573     9.9145788754    20.1461529179
   18      N       0.5386712425    10.4697678701    18.3859454109
   19      H       1.4136919453    10.8020628197    17.9922003199
   20      C      -0.4185744398    10.1082906806    17.5137415361
   21      H      -0.1015536567    10.2201639611    16.4640250309
   22      O      -1.5488127117     9.6876729163    17.8048504944
 ----------------------------------------------------------------

   12    -404.6020939707      3.42e-09  Convergence criterion met
 Total energy in the final basis set =     -404.6020939707

                    Orbital Energies (a.u.)
 --------------------------------------------------------------

 Alpha MOs
 -- Occupied --
-19.1348 -14.3717 -10.2939 -10.2253 -10.1824 -10.1821 -10.1796 -10.1795
-10.1775  -1.0389  -0.9331  -0.8241  -0.7426  -0.7407  -0.6368  -0.6108
 -0.5918  -0.5630  -0.5263  -0.4837  -0.4607  -0.4417  -0.4372  -0.4192
 -0.4180  -0.3952  -0.3782  -0.3736  -0.3472  -0.3429  -0.3214  -0.3116
 -0.3092  -0.2710  -0.2608

          Ground-State Mulliken Net Atomic Charges

     Atom                 Charge (a.u.)
  ----------------------------------------
      1 C                    -0.271362
      2 C                    -0.431627
      3 C                    -0.287555
      4 C                    -0.453288
      5 C                    -0.381051
      6 C                    -0.455721
      7 H                     0.211130
      8 H                     0.227032
      9 H                     0.214615
     10 H                     0.210254
     11 H                     0.207536
     12 H                     0.203294
     13 H                     0.199323
     14 H                     0.203154
     15 H                     0.207412
     16 H                     0.203258
     17 H                     0.214702
     18 N                    -0.383348
     19 H                     0.452808
     20 C                     0.346229
     21 H                     0.184871
     22 O                    -0.621667
  ----------------------------------------
  Sum of atomic charges =     0.000000

                    Cartesian Multipole Moments
 -----------------------------------------------------------------
    Charge (ESU x 10^10)
                 0.0000
    Dipole Moment (Debye)
         X       5.5203      Y       2.0936      Z       1.1906
       Tot       6.0228
    Quadrupole Moments (Debye-Ang)
        XX     -61.0720     XY      55.1919     YY     -14.5051
        XZ      99.6217     YZ      50.0539     ZZ      -7.4511

 Frequency:       -13.48                  93.73                 192.65
 Force Cnst:      0.0005                 0.0194                 0.0489
 Red. Mass:       4.7911                 3.7459                 2.2364
 IR Intens:       15.283                  9.893                 59.009
 Frequency:       207.83                 227.32                 333.57
 Force Cnst:      0.0895                 0.0544                 0.1236
 Red. Mass:       3.5151                 1.7859                 1.8856
 IR Intens:       12.306                  0.193                  0.124
 Frequency:       397.92                 409.55                 449.61
 Force Cnst:      0.3343                 0.3645                 0.2684
 Red. Mass:       3.5836                 3.6885                 2.2532
 IR Intens:       12.440                 31.824                  0.728
 Frequency:       464.48                 531.54                 604.14
 Force Cnst:      0.4737                 0.2679                 0.2468
 Red. Mass:       3.7266                 1.6092                 1.1477
 IR Intens:       11.993                  2.342                105.249
 Frequency:       744.27                 799.15                 821.29
 Force Cnst:      1.3730                 0.5418                 0.9684
 Red. Mass:       4.2069                 1.4400                 2.4368
 IR Intens:        6.022                  0.165                  0.872
 Frequency:       849.66                 901.66                 916.43
 Force Cnst:      0.8481                 0.8784                 0.9699
 Red. Mass:       1.9939                 1.8339                 1.9600
 IR Intens:        2.934                 17.061                  1.248
 Frequency:       935.62                 964.12                1027.69
 Force Cnst:      0.7776                 1.2862                 0.9882
 Red. Mass:       1.5077                 2.3486                 1.5881
 IR Intens:        0.534                  7.552                  0.020
 Frequency:      1035.38                1063.17                1069.47
 Force Cnst:      1.1139                 0.9268                 2.4890
 Red. Mass:       1.7637                 1.3916                 3.6936
 IR Intens:        2.776                  2.655                 22.591
 Frequency:      1091.31                1103.52                1174.31
 Force Cnst:      0.8085                 1.7802                 1.8937
 Red. Mass:       1.1522                 2.4812                 2.3307
 IR Intens:        0.005                  2.046                  6.880
 Frequency:      1209.95                1243.89                1274.57
 Force Cnst:      1.2793                 1.5856                 1.2614
 Red. Mass:       1.4832                 1.7393                 1.3179
 IR Intens:        1.562                 59.059                 16.638
 Frequency:      1287.79                1297.03                1342.02
 Force Cnst:      1.2351                 1.3956                 1.3569
 Red. Mass:       1.2640                 1.4081                 1.2787
 IR Intens:        2.701                 11.762                  2.940
 Frequency:      1343.93                1374.49                1382.68
 Force Cnst:      1.3130                 1.5422                 1.5700
 Red. Mass:       1.2339                 1.3855                 1.3938
 IR Intens:       12.012                  1.464                  0.480
 Frequency:      1384.39                1386.86                1404.43
 Force Cnst:      1.6507                 1.6884                 1.7187
 Red. Mass:       1.4619                 1.4899                 1.4789
 IR Intens:        0.108                 11.733                  0.809
 Frequency:      1426.12                1493.93                1496.01
 Force Cnst:      1.5061                 1.4309                 1.4340
 Red. Mass:       1.2569                 1.0882                 1.0875
 IR Intens:       75.459                  0.095                  5.660
 Frequency:      1499.29                1499.99                1512.08
 Force Cnst:      1.4550                 1.4490                 1.4831
 Red. Mass:       1.0986                 1.0931                 1.1010
 IR Intens:        7.804                 10.907                  0.474
 Frequency:      1561.72                1690.70                3014.18
 Force Cnst:      2.7008                 9.1195                 5.7227
 Red. Mass:       1.8795                 5.4149                 1.0691
 IR Intens:      329.708                808.454                 35.205
 Frequency:      3015.25                3018.76                3019.35
 Force Cnst:      5.7217                 5.7215                 5.7027
 Red. Mass:       1.0681                 1.0656                 1.0617
 IR Intens:       50.542                 15.511                  9.265
 Frequency:      3021.17                3035.22                3062.17
 Force Cnst:      5.7126                 5.8944                 6.0478
 Red. Mass:       1.0623                 1.0860                 1.0947
 IR Intens:      145.117                120.226                118.545
 Frequency:      3063.43                3067.03                3068.47
 Force Cnst:      6.0641                 6.0780                 6.0872
 Red. Mass:       1.0967                 1.0967                 1.0973
 IR Intens:      131.556                 76.938                103.759
 Frequency:      3070.33                3096.71                3578.94
 Force Cnst:      6.1133                 6.1472                 8.1391
 Red. Mass:       1.1007                 1.0880                 1.0785
 IR Intens:       46.823                 61.865                 68.777
 Frequency:       -13.47                  93.07                 172.52
 Force Cnst:      0.0005                 0.0192                 0.0493
 Red. Mass:       4.8006                 3.7663                 2.8101
 IR Intens:       15.255                  9.620                 48.127
 Frequency:       207.49                 227.31                 333.36
 Force Cnst:      0.0905                 0.0543                 0.1241
 Red. Mass:       3.5665                 1.7850                 1.8954
 IR Intens:       10.877                  0.114                  0.109
 Frequency:       393.03                 402.71                 449.42
 Force Cnst:      0.3329                 0.3848                 0.2705
 Red. Mass:       3.6581                 4.0271                 2.2727
 IR Intens:       11.815                 21.778                  0.772
 Frequency:       459.89                 529.02                 595.75
 Force Cnst:      0.4389                 0.2653                 0.2374
 Red. Mass:       3.5220                 1.6092                 1.1353
 IR Intens:        3.444                  1.922                126.654
 Frequency:       734.83                 799.15                 819.24
 Force Cnst:      1.3249                 0.5418                 0.9550
 Red. Mass:       4.1646                 1.4399                 2.4150
 IR Intens:        5.763                  0.163                  0.633
 Frequency:       848.64                 863.36                 901.70
 Force Cnst:      0.8601                 1.7694                 0.8755
 Red. Mass:       2.0271                 4.0290                 1.8276
 IR Intens:        3.446                  1.032                 16.838
 Frequency:       914.11                 935.75                 942.04
 Force Cnst:      1.0085                 0.7789                 1.1801
 Red. Mass:       2.0484                 1.5098                 2.2570
 IR Intens:        2.126                  0.614                  6.963
 Frequency:      1021.74                1035.85                1062.30
 Force Cnst:      1.4217                 1.1384                 0.9372
 Red. Mass:       2.3115                 1.8007                 1.4095
 IR Intens:        8.150                  1.853                  2.352
 Frequency:      1091.26                1103.05                1118.77
 Force Cnst:      0.8024                 1.8115                 2.4349
 Red. Mass:       1.1436                 2.5269                 3.3018
 IR Intens:        0.004                  1.819                 26.831
 Frequency:      1178.22                1209.44                1246.19
 Force Cnst:      2.0674                 1.2786                 1.8555
 Red. Mass:       2.5276                 1.4836                 2.0279
 IR Intens:       19.296                  1.338                 45.841
 Frequency:      1274.01                1287.78                1295.70
 Force Cnst:      1.2552                 1.2351                 1.3767
 Red. Mass:       1.3125                 1.2641                 1.3918
 IR Intens:       13.564                  2.658                  7.052
 Frequency:      1341.63                1343.14                1374.44
 Force Cnst:      1.3311                 1.3200                 1.5419
 Red. Mass:       1.2551                 1.2419                 1.3853
 IR Intens:        5.571                  7.114                  1.407
 Frequency:      1382.60                1384.39                1386.85
 Force Cnst:      1.5687                 1.6512                 1.6874
 Red. Mass:       1.3928                 1.4623                 1.4891
 IR Intens:        0.420                  0.105                 11.306
 Frequency:      1403.96                1493.93                1496.01
 Force Cnst:      1.7071                 1.4309                 1.4340
 Red. Mass:       1.4700                 1.0882                 1.0875
 IR Intens:        0.560                  0.096                  5.722
 Frequency:      1499.29                1499.99                1512.05
 Force Cnst:      1.4550                 1.4490                 1.4832
 Red. Mass:       1.0986                 1.0930                 1.1011
 IR Intens:        7.778                 10.721                  0.661
 Frequency:      1555.43                1667.40                2242.49
 Force Cnst:      2.5191                14.0289                 7.0934
 Red. Mass:       1.7672                 8.5644                 2.3941
 IR Intens:      268.966                923.746                 98.737
 Frequency:      3014.18                3015.25                3018.77
 Force Cnst:      5.7227                 5.7217                 5.7214
 Red. Mass:       1.0691                 1.0681                 1.0656
 IR Intens:       34.532                 50.581                 14.731
 Frequency:      3019.35                3021.17                3062.17
 Force Cnst:      5.7028                 5.7127                 6.0478
 Red. Mass:       1.0617                 1.0623                 1.0947
 IR Intens:        9.141                149.364                121.380
 Frequency:      3063.43                3067.03                3068.46
 Force Cnst:      6.0641                 6.0782                 6.0870
 Red. Mass:       1.0967                 1.0967                 1.0973
 IR Intens:      131.562                 76.741                102.075
 Frequency:      3070.33                3096.66                3578.89
 Force Cnst:      6.1133                 6.1470                 8.1387
 Red. Mass:       1.1007                 1.0880                 1.0785
 IR Intens:       46.805                 65.064                 69.447

 STANDARD THERMODYNAMIC QUANTITIES AT   298.18 K  AND     1.00 ATM

   This Molecule has  1 Imaginary Frequencies
   Zero point vibrational energy:      121.837 kcal/mol

   Atom    1 Element C  Has Mass   12.00000
   Atom    2 Element C  Has Mass   12.00000
   Atom    3 Element C  Has Mass   12.00000
   Atom    4 Element C  Has Mass   12.00000
   Atom    5 Element C  Has Mass   12.00000
   Atom    6 Element C  Has Mass   12.00000
   Atom    7 Element H  Has Mass    1.00783
   Atom    8 Element H  Has Mass    1.00783
   Atom    9 Element H  Has Mass    1.00783
   Atom   10 Element H  Has Mass    1.00783
   Atom   11 Element H  Has Mass    1.00783
   Atom   12 Element H  Has Mass    1.00783
   Atom   13 Element H  Has Mass    1.00783
   Atom   14 Element H  Has Mass    1.00783
   Atom   15 Element H  Has Mass    1.00783
   Atom   16 Element H  Has Mass    1.00783
   Atom   17 Element H  Has Mass    1.00783
   Atom   18 Element N  Has Mass   14.00307
   Atom   19 Element H  Has Mass    1.00783
   Atom   20 Element C  Has Mass   12.00000
   Atom   21 Element H  Has Mass    2.01410
   Atom   22 Element O  Has Mass   15.99491
   Molecular Mass:   128.106042 amu
   Principal axes and moments of inertia in amu*Bohr^2:
                             1           2           3
    Eigenvalues --      537.68649  2029.83307  2230.74923
          X               0.39031    -0.42612     0.81614
          Y               0.16165     0.90439     0.39489
          Z               0.90638     0.02220    -0.42188
   Rotational Symmetry Number is   1
   The Molecule is an Asymmetric Top
   Translational Enthalpy:        0.889 kcal/mol
   Rotational Enthalpy:           0.889 kcal/mol
   Vibrational Enthalpy:        125.118 kcal/mol
   gas constant (RT):             0.593 kcal/mol
   Translational Entropy:        40.457  cal/mol.K
   Rotational Entropy:           29.278  cal/mol.K
   Vibrational Entropy:          18.121  cal/mol.K

   Total Enthalpy:              127.488 kcal/mol
   Total Entropy:                87.855  cal/mol.K

 Total job time:  890.58s(wall), 12325.50s(cpu)
        *  Thank you very much for using Q-Chem.  Have a nice day.  *
