 Q-Chem 5.2 (devel), Q-Chem, Inc., Pleasanton, CA (2019)
 Q-Chem 5.2.2 for Intel X86 EM64T Linux

User input:
--------------------------------------------------------------
$molecule
0 1
C    0.58000    11.83000   20.41000
C    0.42000    10.41000   19.83000
C    1.53000    9.53000    20.44000
C    1.44000    9.53000    21.98000
C    1.37000    10.92000   22.65000
C    0.42000    11.90000   21.94000
H    1.49000    8.50000    20.05000
H    -0.52000   10.00000   20.20000
H    1.40000    12.47000   20.08000
H    -0.28000   12.43000   20.08000
H    0.54000    9.00000    22.28000
H    2.32000    8.99000    22.34000
H    1.27000    10.83000   23.73000
H    2.37000    11.32000   22.50000
H    -0.63000   11.62000   22.11000
H    0.56000    12.91000   22.33000
H    2.51000    9.84000    20.07000
N    0.54000    10.41000   18.38000
H    1.39000    10.78000   17.99000
C    -0.47000   10.09000   17.50000
H    -0.16000   10.30000   16.46000
O    -1.56000   9.66000    17.84000
$end

$rem
JOBTYPE  OPT
METHOD  B3LYP
BASIS  6-31+G(D)
SYMMETRY  FALSE
SYM_IGNORE  FALSE
MEM_TOTAL  8000
MEM_STATIC  2000
MAX_SUB_FILE_NUM  16000
BASIS_LIN_DEP_THRESH  6
THRESH  14
SCF_CONVERGENCE  8
GEN_SCFMAN  TRUE
SCF_GUESS  SAD
FD_MAT_VEC_PROD  FALSE
XC_GRID  000099000590
NL_GRID  1
MAX_SCF_CYCLES  200
GEOM_OPT_TOL_GRADIENT  100
GEOM_OPT_TOL_DISPLACEMENT  100
GEOM_OPT_TOL_ENERGY  10
SOLVENT_METHOD       PCM
$end

$PCM
THEORY                     CPCM
METHOD                     SWIG
SOLVER                     INVERSION
HPOINTS                    302
HEAVYPOINTS                302
$END

$SOLVENT
DIELECTRIC                 37.22
$END

--------------------------------------------------------------

   13    -404.5825398088      5.67e-09  Convergence criterion met
 Total energy in the final basis set =     -404.5825398088
   12    -404.5933322178      3.00e-09  Convergence criterion met
 Total energy in the final basis set =     -404.5933322178
   12    -404.5991078352      3.08e-09  Convergence criterion met
 Total energy in the final basis set =     -404.5991078352
   12    -404.6009755131      3.24e-09  Convergence criterion met
 Total energy in the final basis set =     -404.6009755131
   12    -404.6018292042      3.36e-09  Convergence criterion met
 Total energy in the final basis set =     -404.6018292042
   12    -404.6019675261      3.42e-09  Convergence criterion met
 Total energy in the final basis set =     -404.6019675261
   12    -404.6019786719      3.39e-09  Convergence criterion met
 Total energy in the final basis set =     -404.6019786719
   12    -404.6019810993      3.39e-09  Convergence criterion met
 Total energy in the final basis set =     -404.6019810993
   12    -404.6019817882      3.39e-09  Convergence criterion met
 Total energy in the final basis set =     -404.6019817882
   12    -404.6019818709      3.39e-09  Convergence criterion met
 Total energy in the final basis set =     -404.6019818709
 Final energy is   -404.601981870880
 **  OPTIMIZATION CONVERGED  **
 Total job time:  751.46s(wall), 10292.05s(cpu)
        *  Thank you very much for using Q-Chem.  Have a nice day.  *

User input: 2 of 2

                  Welcome to Q-Chem
     A Quantum Leap Into The Future Of Chemistry

 Q-Chem 5.2 (devel), Q-Chem, Inc., Pleasanton, CA (2019)

 Yihan Shao,  Zhengting Gan,  E. Epifanovsky,  A. T. B. Gilbert,  M. Wormit,
 J. Kussmann,  A. W. Lange,  A. Behn,  Jia Deng,  Xintian Feng,  D. Ghosh,
 M. Goldey,  P. R. Horn,  L. D. Jacobson,  I. Kaliman,  T. Kus,  A. Landau,
 Jie Liu,  E. I. Proynov,  R. M. Richard,  R. P. Steele,  E. J. Sundstrom,
 H. L. Woodcock III,  P. M. Zimmerman,  D. Zuev,  B. Alam,  B. Albrecht,
 E. Alguire,  S. A. Baeppler,  D. Barton,  Z. Benda,  Y. A. Bernard,
 E. J. Berquist,  K. B. Bravaya,  H. Burton,  K. Carter-Fenk,  D. Casanova,
 Chun-Min Chang,  Yunqing Chen,  A. Chien,  K. D. Closser,  M. P. Coons,
 S. Coriani,  S. Dasgupta,  A. L. Dempwolff,  M. Diedenhofen,  Hainam Do,
 R. G. Edgar,  Po-Tung Fang,  S. Faraji,  S. Fatehi,  Qingguo Feng,
 J. Fosso-Tande,  J. Gayvert,  Qinghui Ge,  A. Ghysels,  G. Gidofalvi,
 J. Gomes,  J. Gonthier,  A. Gunina,  D. Hait,  M. W. D. Hanson-Heine,
 P. H. P. Harbach,  A. W. Hauser,  M. F. Herbst,  J. E. Herr,
 E. G. Hohenstein,  Z. C. Holden,  Kerwin Hui,  B. C. Huynh,  T.-C. Jagau,
 Hyunjun Ji,  B. Kaduk,  K. Khistyaev,  Jaehoon Kim,  P. Klunzinger,  K. Koh,
 D. Kosenkov,  L. Koulias,  T. Kowalczyk,  C. M. Krauter,  A. Kunitsa,
 Ka Un Lao,  A. Laurent,  K. V. Lawler,  Joonho Lee,  D. Lefrancois,
 S. Lehtola,  D. S. Levine,  Yi-Pei Li,  You-Sheng Lin,  Fenglai Liu,
 Kuan-Yu Liu,  E. Livshits,  M. Loipersberger,  A. Luenser,  P. Manohar,
 E. Mansoor,  S. F. Manzer,  Shan-Ping Mao,  Yuezhi Mao,  N. Mardirossian,
 A. V. Marenich,  T. Markovich,  L. A. Martinez-Martinez,  S. A. Maurer,
 N. J. Mayhall,  S. C. McKenzie,  J.-M. Mewes,  P. Morgante,  A. F. Morrison,
 J. W. Mullinax,  K. Nanda,  T. S. Nguyen-Beck,  R. Olivares-Amaya,
 J. A. Parkhill,  S. K. Paul,  F. Pavosevic,  Zheng Pei,  T. M. Perrine,
 F. Plasser,  P. Pokhilko,  S. Prager,  A. Prociuk,  E. Ramos,  B. Rana,
 D. R. Rehn,  F. Rob,  M. Scheurer,  M. Schneider,  N. Sergueev,
 S. M. Sharada,  S. Sharma,  D. W. Small,  T. Stauch,  C. J. Stein,
 T. Stein,  Yu-Chuan Su,  S. P. Veccham,  Zhen Tao,  A. J. W. Thom,
 A. Tkatchenko,  T. Tsuchimochi,  N. M. Tubman,  L. Vogt,  M. L. Vidal,
 O. Vydrov,  M. A. Watson,  J. Wenzel,  M. de Wergifosse,  T. A. Wesolowski,
 A. White,  J. Witte,  A. Yamada,  Jun Yang,  K. Yao,  S. Yeganeh,
 S. R. Yost,  Zhi-Qiang You,  A. Zech,  Igor Ying Zhang,  Xing Zhang,
 Yan Zhao,  Ying Zhu,  B. R. Brooks,  G. K. L. Chan,  C. J. Cramer,
 M. S. Gordon,  W. J. Hehre,  A. Klamt,  M. W. Schmidt,  C. D. Sherrill,
 D. G. Truhlar,  A. Aspuru-Guzik,  R. Baer,  A. T. Bell,  N. A. Besley,
 Jeng-Da Chai,  A. E. DePrince, III,  R. A. DiStasio Jr.,  A. Dreuw,
 B. D. Dunietz,  T. R. Furlani,  Chao-Ping Hsu,  Yousung Jung,  Jing Kong,
 D. S. Lambrecht,  WanZhen Liang,  C. Ochsenfeld,  V. A. Rassolov,
 L. V. Slipchenko,  J. E. Subotnik,  T. Van Voorhis,  J. M. Herbert,
 A. I. Krylov,  P. M. W. Gill,  M. Head-Gordon

 Contributors to earlier versions of Q-Chem not listed above:
 R. D. Adamson,  B. Austin,  J. Baker,  G. J. O. Beran,  K. Brandhorst,
 S. T. Brown,  E. F. C. Byrd,  A. K. Chakraborty,  C.-L. Cheng,
 Siu Hung Chien,  D. M. Chipman,  D. L. Crittenden,  H. Dachsel,
 R. J. Doerksen,  A. D. Dutoi,  L. Fusti-Molnar,  W. A. Goddard III,
 A. Golubeva-Zadorozhnaya,  S. R. Gwaltney,  G. Hawkins,  A. Heyden,
 S. Hirata,  G. Kedziora,  F. J. Keil,  C. Kelley,  Jihan Kim,  R. A. King,
 R. Z. Khaliullin,  P. P. Korambath,  W. Kurlancheek,  A. M. Lee,  M. S. Lee,
 S. V. Levchenko,  Ching Yeh Lin,  D. Liotard,  R. C. Lochan,  I. Lotan,
 P. E. Maslen,  N. Nair,  D. P. O'Neill,  D. Neuhauser,  E. Neuscamman,
 C. M. Oana,  R. Olson,  B. Peters,  R. Peverati,  P. A. Pieniazek,
 Y. M. Rhee,  J. Ritchie,  M. A. Rohrdanz,  E. Rosta,  N. J. Russ,
 H. F. Schaefer III,  N. E. Schultz,  N. Shenvi,  A. C. Simmonett,  A. Sodt,
 D. Stuck,  K. S. Thanthiriwatte,  V. Vanovschi,  Tao Wang,  A. Warshel,
 C. F. Williams,  Q. Wu,  X. Xu,  W. Zhang

 Please cite Q-Chem as follows:
 Y. Shao et al., Mol. Phys. 113, 184-215 (2015)
 DOI: 10.1080/00268976.2014.952696

 Q-Chem 5.2.2 for Intel X86 EM64T Linux

 Parts of Q-Chem use Armadillo 9.800.1 (Horizon Scraper).
 http://arma.sourceforge.net/

 Q-Chem begins on Thu Apr  8 15:21:20 2021

Host: node026
0

     Scratch files written to /home/ymao90/scratch/probe_b3lyp_DMF20210408150848//
The previous job contains 0 fragments, simply inherited here
Symmetry turned off for PCM/SM12/SMD calculation

Checking the input file for inconsistencies... 	...done.

--------------------------------------------------------------
User input:
--------------------------------------------------------------

$molecule
read
$end

$rem
JOBTYPE  FREQ
METHOD  B3LYP
BASIS  6-31+G(D)
SYMMETRY  FALSE
SYM_IGNORE  FALSE
MEM_TOTAL  8000
MEM_STATIC  2000
MAX_SUB_FILE_NUM  16000
BASIS_LIN_DEP_THRESH  6
THRESH  14
SCF_CONVERGENCE  8
GEN_SCFMAN  TRUE
SCF_GUESS  READ
FD_MAT_VEC_PROD  FALSE
XC_GRID  000099000590
NL_GRID  1
MAX_SCF_CYCLES  200
ISOTOPES TRUE
SOLVENT_METHOD  PCM
$end

$isotopes
1 0
1
 21 2.0141018
$end

$PCM
THEORY                     CPCM
METHOD                     SWIG
SOLVER                     INVERSION
HPOINTS                    302
HEAVYPOINTS                302
$END

$SOLVENT
DIELECTRIC                 37.22
$END
--------------------------------------------------------------

             Standard Nuclear Orientation (Angstroms)
    I     Atom           X                Y                Z
 ----------------------------------------------------------------
    1      C       0.4820655418    11.8631111979    20.4299704878
    2      C       0.4211192918    10.4392083007    19.8476541011
    3      C       1.5093884405     9.5386530857    20.4582993744
    4      C       1.4277970594     9.5244736740    21.9939055218
    5      C       1.4871649291    10.9449065098    22.5777169597
    6      C       0.4011691949    11.8437027280    21.9655122493
    7      H       1.4099443354     8.5220798525    20.0569437855
    8      H      -0.5617986718    10.0077794869    20.0623544401
    9      H       1.4271768448    12.3322102934    20.1169674776
   10      H      -0.3324050934    12.4652425633    20.0075357367
   11      H       0.4859271230     9.0454728626    22.3011046234
   12      H       2.2409864314     8.9092014761    22.4002518944
   13      H       1.3772308699    10.9094263905    23.6696053479
   14      H       2.4767594344    11.3805369840    22.3720171575
   15      H      -0.5895072815    11.4742086499    22.2705487280
   16      H       0.4882213538    12.8672561801    22.3524578777
   17      H       2.4957148225     9.9145763143    20.1462513659
   18      N       0.5387754378    10.4697523146    18.3858875454
   19      H       1.4137567907    10.8019618817    17.9920330511
   20      C      -0.4187644854    10.1082913225    17.5138077210
   21      H      -0.1018672614    10.2200865534    16.4640108036
   22      O      -1.5488551076     9.6878613780    17.8051637502
 ----------------------------------------------------------------

   12    -404.6019818704      3.39e-09  Convergence criterion met
 Total energy in the final basis set =     -404.6019818704

                    Orbital Energies (a.u.)
 --------------------------------------------------------------

 Alpha MOs
 -- Occupied --
-19.1348 -14.3717 -10.2939 -10.2254 -10.1825 -10.1822 -10.1797 -10.1796
-10.1776  -1.0389  -0.9331  -0.8242  -0.7427  -0.7408  -0.6368  -0.6109
 -0.5919  -0.5631  -0.5263  -0.4837  -0.4607  -0.4418  -0.4373  -0.4192
 -0.4180  -0.3953  -0.3783  -0.3736  -0.3473  -0.3430  -0.3215  -0.3117
 -0.3092  -0.2709  -0.2608

          Ground-State Mulliken Net Atomic Charges

     Atom                 Charge (a.u.)
  ----------------------------------------
      1 C                    -0.271219
      2 C                    -0.432117
      3 C                    -0.287454
      4 C                    -0.453072
      5 C                    -0.381115
      6 C                    -0.455507
      7 H                     0.211156
      8 H                     0.227198
      9 H                     0.214428
     10 H                     0.210292
     11 H                     0.207545
     12 H                     0.203260
     13 H                     0.199321
     14 H                     0.203081
     15 H                     0.207424
     16 H                     0.203226
     17 H                     0.214509
     18 N                    -0.383426
     19 H                     0.452386
     20 C                     0.346124
     21 H                     0.184565
     22 O                    -0.620606
  ----------------------------------------
  Sum of atomic charges =     0.000000

                    Cartesian Multipole Moments
 -----------------------------------------------------------------
    Charge (ESU x 10^10)
                -0.0000
    Dipole Moment (Debye)
         X       5.5059      Y       2.0876      Z       1.1892
       Tot       6.0073
    Quadrupole Moments (Debye-Ang)
        XX     -61.0698     XY      55.0454     YY     -14.6274
        XZ      99.3567     YZ      49.9296     ZZ      -7.5025

 Frequency:       -13.44                  93.79                 192.55
 Force Cnst:      0.0005                 0.0194                 0.0488
 Red. Mass:       4.7911                 3.7447                 2.2351
 IR Intens:       15.196                  9.848                 58.869
 Frequency:       207.86                 227.33                 333.58
 Force Cnst:      0.0895                 0.0544                 0.1236
 Red. Mass:       3.5168                 1.7859                 1.8857
 IR Intens:       12.259                  0.191                  0.124
 Frequency:       397.92                 409.47                 449.59
 Force Cnst:      0.3343                 0.3646                 0.2683
 Red. Mass:       3.5838                 3.6913                 2.2530
 IR Intens:       12.421                 31.774                  0.724
 Frequency:       464.43                 531.56                 603.57
 Force Cnst:      0.4734                 0.2679                 0.2463
 Red. Mass:       3.7251                 1.6093                 1.1477
 IR Intens:       11.923                  2.334                104.667
 Frequency:       744.29                 799.16                 821.31
 Force Cnst:      1.3728                 0.5418                 0.9686
 Red. Mass:       4.2062                 1.4400                 2.4371
 IR Intens:        5.999                  0.165                  0.869
 Frequency:       849.67                 901.68                 916.46
 Force Cnst:      0.8482                 0.8787                 0.9699
 Red. Mass:       1.9941                 1.8344                 1.9599
 IR Intens:        2.913                 16.972                  1.238
 Frequency:       935.63                 964.15                1027.60
 Force Cnst:      0.7775                 1.2864                 0.9882
 Red. Mass:       1.5075                 2.3487                 1.5883
 IR Intens:        0.533                  7.522                  0.020
 Frequency:      1035.41                1063.21                1069.51
 Force Cnst:      1.1142                 0.9269                 2.4888
 Red. Mass:       1.7639                 1.3917                 3.6929
 IR Intens:        2.765                  2.645                 22.429
 Frequency:      1091.35                1103.53                1174.33
 Force Cnst:      0.8086                 1.7807                 1.8933
 Red. Mass:       1.1523                 2.4819                 2.3302
 IR Intens:        0.006                  2.041                  6.805
 Frequency:      1210.00                1243.68                1274.62
 Force Cnst:      1.2793                 1.5867                 1.2617
 Red. Mass:       1.4831                 1.7411                 1.3180
 IR Intens:        1.556                 59.503                 16.616
 Frequency:      1287.85                1297.01                1342.05
 Force Cnst:      1.2351                 1.3944                 1.3570
 Red. Mass:       1.2640                 1.4069                 1.2788
 IR Intens:        2.703                 11.705                  2.935
 Frequency:      1343.98                1374.53                1382.72
 Force Cnst:      1.3131                 1.5423                 1.5677
 Red. Mass:       1.2339                 1.3855                 1.3917
 IR Intens:       12.064                  1.458                  0.488
 Frequency:      1384.43                1386.91                1404.46
 Force Cnst:      1.6531                 1.6884                 1.7188
 Red. Mass:       1.4639                 1.4898                 1.4790
 IR Intens:        0.102                 11.676                  0.815
 Frequency:      1426.20                1494.00                1496.10
 Force Cnst:      1.5056                 1.4310                 1.4343
 Red. Mass:       1.2563                 1.0882                 1.0876
 IR Intens:       74.397                  0.096                  5.629
 Frequency:      1499.36                1500.08                1512.18
 Force Cnst:      1.4552                 1.4490                 1.4833
 Red. Mass:       1.0986                 1.0930                 1.1010
 IR Intens:        7.785                 10.941                  0.474
 Frequency:      1561.59                1691.31                3014.15
 Force Cnst:      2.6994                 9.1544                 5.7225
 Red. Mass:       1.8788                 5.4317                 1.0691
 IR Intens:      328.558                805.040                 35.175
 Frequency:      3015.19                3018.75                3019.34
 Force Cnst:      5.7215                 5.7227                 5.7033
 Red. Mass:       1.0682                 1.0658                 1.0618
 IR Intens:       49.895                 12.483                  8.725
 Frequency:      3021.10                3034.76                3062.20
 Force Cnst:      5.7112                 5.8926                 6.0477
 Red. Mass:       1.0620                 1.0859                 1.0946
 IR Intens:      148.178                120.486                118.298
 Frequency:      3063.46                3067.06                3068.51
 Force Cnst:      6.0643                 6.0785                 6.0870
 Red. Mass:       1.0967                 1.0967                 1.0972
 IR Intens:      130.760                 77.080                102.623
 Frequency:      3070.35                3096.76                3579.09
 Force Cnst:      6.1130                 6.1473                 8.1398
 Red. Mass:       1.1006                 1.0880                 1.0785
 IR Intens:       46.945                 61.297                 68.063
 Frequency:       -13.43                  93.13                 172.43
 Force Cnst:      0.0005                 0.0192                 0.0492
 Red. Mass:       4.8005                 3.7651                 2.8092
 IR Intens:       15.167                  9.576                 47.992
 Frequency:       207.52                 227.32                 333.37
 Force Cnst:      0.0905                 0.0543                 0.1241
 Red. Mass:       3.5674                 1.7850                 1.8955
 IR Intens:       10.852                  0.114                  0.109
 Frequency:       393.03                 402.65                 449.41
 Force Cnst:      0.3330                 0.3849                 0.2704
 Red. Mass:       3.6587                 4.0293                 2.2725
 IR Intens:       11.795                 21.734                  0.769
 Frequency:       459.87                 529.04                 595.13
 Force Cnst:      0.4387                 0.2654                 0.2369
 Red. Mass:       3.5208                 1.6093                 1.1353
 IR Intens:        3.423                  1.916                126.052
 Frequency:       734.85                 799.15                 819.26
 Force Cnst:      1.3248                 0.5418                 0.9552
 Red. Mass:       4.1638                 1.4399                 2.4153
 IR Intens:        5.741                  0.163                  0.631
 Frequency:       848.65                 863.32                 901.73
 Force Cnst:      0.8602                 1.7694                 0.8758
 Red. Mass:       2.0272                 4.0294                 1.8281
 IR Intens:        3.422                  1.021                 16.751
 Frequency:       914.13                 935.76                 942.05
 Force Cnst:      1.0085                 0.7789                 1.1801
 Red. Mass:       2.0484                 1.5097                 2.2570
 IR Intens:        2.112                  0.614                  6.925
 Frequency:      1021.74                1035.89                1062.35
 Force Cnst:      1.4216                 1.1386                 0.9373
 Red. Mass:       2.3113                 1.8009                 1.4095
 IR Intens:        8.086                  1.847                  2.342
 Frequency:      1091.30                1103.05                1118.80
 Force Cnst:      0.8025                 1.8121                 2.4350
 Red. Mass:       1.1436                 2.5277                 3.3017
 IR Intens:        0.004                  1.815                 26.697
 Frequency:      1178.26                1209.49                1246.03
 Force Cnst:      2.0676                 1.2786                 1.8566
 Red. Mass:       2.5278                 1.4835                 2.0296
 IR Intens:       19.201                  1.333                 46.107
 Frequency:      1274.07                1287.84                1295.69
 Force Cnst:      1.2554                 1.2352                 1.3757
 Red. Mass:       1.3127                 1.2641                 1.3908
 IR Intens:       13.555                  2.661                  7.034
 Frequency:      1341.67                1343.19                1374.48
 Force Cnst:      1.3315                 1.3199                 1.5420
 Red. Mass:       1.2554                 1.2417                 1.3853
 IR Intens:        5.545                  7.178                  1.402
 Frequency:      1382.64                1384.43                1386.89
 Force Cnst:      1.5665                 1.6534                 1.6874
 Red. Mass:       1.3908                 1.4642                 1.4890
 IR Intens:        0.428                  0.100                 11.263
 Frequency:      1403.98                1493.99                1496.10
 Force Cnst:      1.7073                 1.4310                 1.4342
 Red. Mass:       1.4700                 1.0882                 1.0876
 IR Intens:        0.567                  0.098                  5.693
 Frequency:      1499.36                1500.08                1512.15
 Force Cnst:      1.4551                 1.4490                 1.4834
 Red. Mass:       1.0986                 1.0929                 1.1011
 IR Intens:        7.759                 10.754                  0.662
 Frequency:      1555.30                1668.06                2242.16
 Force Cnst:      2.5184                14.0459                 7.0917
 Red. Mass:       1.7670                 8.5679                 2.3942
 IR Intens:      268.222                919.056                 98.836
 Frequency:      3014.15                3015.19                3018.76
 Force Cnst:      5.7224                 5.7215                 5.7225
 Red. Mass:       1.0691                 1.0681                 1.0658
 IR Intens:       34.504                 49.936                 11.845
 Frequency:      3019.34                3021.10                3062.19
 Force Cnst:      5.7034                 5.7112                 6.0477
 Red. Mass:       1.0618                 1.0621                 1.0946
 IR Intens:        8.585                152.406                121.087
 Frequency:      3063.46                3067.06                3068.50
 Force Cnst:      6.0643                 6.0786                 6.0868
 Red. Mass:       1.0967                 1.0968                 1.0972
 IR Intens:      130.766                 76.878                100.971
 Frequency:      3070.35                3096.71                3579.04
 Force Cnst:      6.1130                 6.1472                 8.1393
 Red. Mass:       1.1006                 1.0880                 1.0785
 IR Intens:       46.926                 64.458                 68.728

 STANDARD THERMODYNAMIC QUANTITIES AT   298.18 K  AND     1.00 ATM

   This Molecule has  1 Imaginary Frequencies
   Zero point vibrational energy:      121.838 kcal/mol

   Atom    1 Element C  Has Mass   12.00000
   Atom    2 Element C  Has Mass   12.00000
   Atom    3 Element C  Has Mass   12.00000
   Atom    4 Element C  Has Mass   12.00000
   Atom    5 Element C  Has Mass   12.00000
   Atom    6 Element C  Has Mass   12.00000
   Atom    7 Element H  Has Mass    1.00783
   Atom    8 Element H  Has Mass    1.00783
   Atom    9 Element H  Has Mass    1.00783
   Atom   10 Element H  Has Mass    1.00783
   Atom   11 Element H  Has Mass    1.00783
   Atom   12 Element H  Has Mass    1.00783
   Atom   13 Element H  Has Mass    1.00783
   Atom   14 Element H  Has Mass    1.00783
   Atom   15 Element H  Has Mass    1.00783
   Atom   16 Element H  Has Mass    1.00783
   Atom   17 Element H  Has Mass    1.00783
   Atom   18 Element N  Has Mass   14.00307
   Atom   19 Element H  Has Mass    1.00783
   Atom   20 Element C  Has Mass   12.00000
   Atom   21 Element H  Has Mass    2.01410
   Atom   22 Element O  Has Mass   15.99491
   Molecular Mass:   128.106042 amu
   Principal axes and moments of inertia in amu*Bohr^2:
                             1           2           3
    Eigenvalues --      537.70852  2029.76198  2230.66367
          X               0.39032    -0.42618     0.81610
          Y               0.16163     0.90436     0.39497
          Z               0.90638     0.02226    -0.42188
   Rotational Symmetry Number is   1
   The Molecule is an Asymmetric Top
   Translational Enthalpy:        0.889 kcal/mol
   Rotational Enthalpy:           0.889 kcal/mol
   Vibrational Enthalpy:        125.119 kcal/mol
   gas constant (RT):             0.593 kcal/mol
   Translational Entropy:        40.457  cal/mol.K
   Rotational Entropy:           29.278  cal/mol.K
   Vibrational Entropy:          18.121  cal/mol.K

   Total Enthalpy:              127.489 kcal/mol
   Total Entropy:                87.856  cal/mol.K

 Total job time:  884.49s(wall), 12375.01s(cpu)
        *  Thank you very much for using Q-Chem.  Have a nice day.  *
