 Q-Chem 5.2 (devel), Q-Chem, Inc., Pleasanton, CA (2019)
 Q-Chem 5.2.2 for Intel X86 EM64T Linux

User input:
--------------------------------------------------------------
$molecule
0 1
C    0.58000    11.83000   20.41000
C    0.42000    10.41000   19.83000
C    1.53000    9.53000    20.44000
C    1.44000    9.53000    21.98000
C    1.37000    10.92000   22.65000
C    0.42000    11.90000   21.94000
H    1.49000    8.50000    20.05000
H    -0.52000   10.00000   20.20000
H    1.40000    12.47000   20.08000
H    -0.28000   12.43000   20.08000
H    0.54000    9.00000    22.28000
H    2.32000    8.99000    22.34000
H    1.27000    10.83000   23.73000
H    2.37000    11.32000   22.50000
H    -0.63000   11.62000   22.11000
H    0.56000    12.91000   22.33000
H    2.51000    9.84000    20.07000
N    0.54000    10.41000   18.38000
H    1.39000    10.78000   17.99000
C    -0.47000   10.09000   17.50000
H    -0.16000   10.30000   16.46000
O    -1.56000   9.66000    17.84000
$end

$rem
JOBTYPE  OPT
METHOD  B3LYP
BASIS  6-31+G(D)
SYMMETRY  FALSE
SYM_IGNORE  FALSE
MEM_TOTAL  8000
MEM_STATIC  2000
MAX_SUB_FILE_NUM  16000
BASIS_LIN_DEP_THRESH  6
THRESH  14
SCF_CONVERGENCE  8
GEN_SCFMAN  TRUE
SCF_GUESS  SAD
FD_MAT_VEC_PROD  FALSE
XC_GRID  000099000590
NL_GRID  1
MAX_SCF_CYCLES  200
GEOM_OPT_TOL_GRADIENT  100
GEOM_OPT_TOL_DISPLACEMENT  100
GEOM_OPT_TOL_ENERGY  10
SOLVENT_METHOD       PCM
$end

$PCM
THEORY                     CPCM
METHOD                     SWIG
SOLVER                     INVERSION
HPOINTS                    302
HEAVYPOINTS                302
$END

$SOLVENT
DIELECTRIC                 37.50
$END

--------------------------------------------------------------

   13    -404.5825435072      5.66e-09  Convergence criterion met
 Total energy in the final basis set =     -404.5825435072
   12    -404.5933361002      3.01e-09  Convergence criterion met
 Total energy in the final basis set =     -404.5933361002
   12    -404.5991118429      3.08e-09  Convergence criterion met
 Total energy in the final basis set =     -404.5991118429
   12    -404.6009795627      3.24e-09  Convergence criterion met
 Total energy in the final basis set =     -404.6009795627
   12    -404.6018332762      3.36e-09  Convergence criterion met
 Total energy in the final basis set =     -404.6018332762
   12    -404.6019715981      3.42e-09  Convergence criterion met
 Total energy in the final basis set =     -404.6019715981
   12    -404.6019827440      3.39e-09  Convergence criterion met
 Total energy in the final basis set =     -404.6019827440
   12    -404.6019851708      3.39e-09  Convergence criterion met
 Total energy in the final basis set =     -404.6019851708
   12    -404.6019858594      3.39e-09  Convergence criterion met
 Total energy in the final basis set =     -404.6019858594
   12    -404.6019859421      3.39e-09  Convergence criterion met
 Total energy in the final basis set =     -404.6019859421
 Final energy is   -404.601985942068
 **  OPTIMIZATION CONVERGED  **
 Total job time:  748.01s(wall), 10335.25s(cpu)
        *  Thank you very much for using Q-Chem.  Have a nice day.  *

User input: 2 of 2

                  Welcome to Q-Chem
     A Quantum Leap Into The Future Of Chemistry

 Q-Chem 5.2 (devel), Q-Chem, Inc., Pleasanton, CA (2019)

 Yihan Shao,  Zhengting Gan,  E. Epifanovsky,  A. T. B. Gilbert,  M. Wormit,
 J. Kussmann,  A. W. Lange,  A. Behn,  Jia Deng,  Xintian Feng,  D. Ghosh,
 M. Goldey,  P. R. Horn,  L. D. Jacobson,  I. Kaliman,  T. Kus,  A. Landau,
 Jie Liu,  E. I. Proynov,  R. M. Richard,  R. P. Steele,  E. J. Sundstrom,
 H. L. Woodcock III,  P. M. Zimmerman,  D. Zuev,  B. Alam,  B. Albrecht,
 E. Alguire,  S. A. Baeppler,  D. Barton,  Z. Benda,  Y. A. Bernard,
 E. J. Berquist,  K. B. Bravaya,  H. Burton,  K. Carter-Fenk,  D. Casanova,
 Chun-Min Chang,  Yunqing Chen,  A. Chien,  K. D. Closser,  M. P. Coons,
 S. Coriani,  S. Dasgupta,  A. L. Dempwolff,  M. Diedenhofen,  Hainam Do,
 R. G. Edgar,  Po-Tung Fang,  S. Faraji,  S. Fatehi,  Qingguo Feng,
 J. Fosso-Tande,  J. Gayvert,  Qinghui Ge,  A. Ghysels,  G. Gidofalvi,
 J. Gomes,  J. Gonthier,  A. Gunina,  D. Hait,  M. W. D. Hanson-Heine,
 P. H. P. Harbach,  A. W. Hauser,  M. F. Herbst,  J. E. Herr,
 E. G. Hohenstein,  Z. C. Holden,  Kerwin Hui,  B. C. Huynh,  T.-C. Jagau,
 Hyunjun Ji,  B. Kaduk,  K. Khistyaev,  Jaehoon Kim,  P. Klunzinger,  K. Koh,
 D. Kosenkov,  L. Koulias,  T. Kowalczyk,  C. M. Krauter,  A. Kunitsa,
 Ka Un Lao,  A. Laurent,  K. V. Lawler,  Joonho Lee,  D. Lefrancois,
 S. Lehtola,  D. S. Levine,  Yi-Pei Li,  You-Sheng Lin,  Fenglai Liu,
 Kuan-Yu Liu,  E. Livshits,  M. Loipersberger,  A. Luenser,  P. Manohar,
 E. Mansoor,  S. F. Manzer,  Shan-Ping Mao,  Yuezhi Mao,  N. Mardirossian,
 A. V. Marenich,  T. Markovich,  L. A. Martinez-Martinez,  S. A. Maurer,
 N. J. Mayhall,  S. C. McKenzie,  J.-M. Mewes,  P. Morgante,  A. F. Morrison,
 J. W. Mullinax,  K. Nanda,  T. S. Nguyen-Beck,  R. Olivares-Amaya,
 J. A. Parkhill,  S. K. Paul,  F. Pavosevic,  Zheng Pei,  T. M. Perrine,
 F. Plasser,  P. Pokhilko,  S. Prager,  A. Prociuk,  E. Ramos,  B. Rana,
 D. R. Rehn,  F. Rob,  M. Scheurer,  M. Schneider,  N. Sergueev,
 S. M. Sharada,  S. Sharma,  D. W. Small,  T. Stauch,  C. J. Stein,
 T. Stein,  Yu-Chuan Su,  S. P. Veccham,  Zhen Tao,  A. J. W. Thom,
 A. Tkatchenko,  T. Tsuchimochi,  N. M. Tubman,  L. Vogt,  M. L. Vidal,
 O. Vydrov,  M. A. Watson,  J. Wenzel,  M. de Wergifosse,  T. A. Wesolowski,
 A. White,  J. Witte,  A. Yamada,  Jun Yang,  K. Yao,  S. Yeganeh,
 S. R. Yost,  Zhi-Qiang You,  A. Zech,  Igor Ying Zhang,  Xing Zhang,
 Yan Zhao,  Ying Zhu,  B. R. Brooks,  G. K. L. Chan,  C. J. Cramer,
 M. S. Gordon,  W. J. Hehre,  A. Klamt,  M. W. Schmidt,  C. D. Sherrill,
 D. G. Truhlar,  A. Aspuru-Guzik,  R. Baer,  A. T. Bell,  N. A. Besley,
 Jeng-Da Chai,  A. E. DePrince, III,  R. A. DiStasio Jr.,  A. Dreuw,
 B. D. Dunietz,  T. R. Furlani,  Chao-Ping Hsu,  Yousung Jung,  Jing Kong,
 D. S. Lambrecht,  WanZhen Liang,  C. Ochsenfeld,  V. A. Rassolov,
 L. V. Slipchenko,  J. E. Subotnik,  T. Van Voorhis,  J. M. Herbert,
 A. I. Krylov,  P. M. W. Gill,  M. Head-Gordon

 Contributors to earlier versions of Q-Chem not listed above:
 R. D. Adamson,  B. Austin,  J. Baker,  G. J. O. Beran,  K. Brandhorst,
 S. T. Brown,  E. F. C. Byrd,  A. K. Chakraborty,  C.-L. Cheng,
 Siu Hung Chien,  D. M. Chipman,  D. L. Crittenden,  H. Dachsel,
 R. J. Doerksen,  A. D. Dutoi,  L. Fusti-Molnar,  W. A. Goddard III,
 A. Golubeva-Zadorozhnaya,  S. R. Gwaltney,  G. Hawkins,  A. Heyden,
 S. Hirata,  G. Kedziora,  F. J. Keil,  C. Kelley,  Jihan Kim,  R. A. King,
 R. Z. Khaliullin,  P. P. Korambath,  W. Kurlancheek,  A. M. Lee,  M. S. Lee,
 S. V. Levchenko,  Ching Yeh Lin,  D. Liotard,  R. C. Lochan,  I. Lotan,
 P. E. Maslen,  N. Nair,  D. P. O'Neill,  D. Neuhauser,  E. Neuscamman,
 C. M. Oana,  R. Olson,  B. Peters,  R. Peverati,  P. A. Pieniazek,
 Y. M. Rhee,  J. Ritchie,  M. A. Rohrdanz,  E. Rosta,  N. J. Russ,
 H. F. Schaefer III,  N. E. Schultz,  N. Shenvi,  A. C. Simmonett,  A. Sodt,
 D. Stuck,  K. S. Thanthiriwatte,  V. Vanovschi,  Tao Wang,  A. Warshel,
 C. F. Williams,  Q. Wu,  X. Xu,  W. Zhang

 Please cite Q-Chem as follows:
 Y. Shao et al., Mol. Phys. 113, 184-215 (2015)
 DOI: 10.1080/00268976.2014.952696

 Q-Chem 5.2.2 for Intel X86 EM64T Linux

 Parts of Q-Chem use Armadillo 9.800.1 (Horizon Scraper).
 http://arma.sourceforge.net/

 Q-Chem begins on Thu Apr  8 15:21:17 2021

Host: node028
0

     Scratch files written to /home/ymao90/scratch/probe_b3lyp_acetonitrile20210408150847//
The previous job contains 0 fragments, simply inherited here
Symmetry turned off for PCM/SM12/SMD calculation

Checking the input file for inconsistencies... 	...done.

--------------------------------------------------------------
User input:
--------------------------------------------------------------

$molecule
read
$end

$rem
JOBTYPE  FREQ
METHOD  B3LYP
BASIS  6-31+G(D)
SYMMETRY  FALSE
SYM_IGNORE  FALSE
MEM_TOTAL  8000
MEM_STATIC  2000
MAX_SUB_FILE_NUM  16000
BASIS_LIN_DEP_THRESH  6
THRESH  14
SCF_CONVERGENCE  8
GEN_SCFMAN  TRUE
SCF_GUESS  READ
FD_MAT_VEC_PROD  FALSE
XC_GRID  000099000590
NL_GRID  1
MAX_SCF_CYCLES  200
ISOTOPES TRUE
SOLVENT_METHOD  PCM
$end

$isotopes
1 0
1
 21 2.0141018
$end

$PCM
THEORY                     CPCM
METHOD                     SWIG
SOLVER                     INVERSION
HPOINTS                    302
HEAVYPOINTS                302
$END

$SOLVENT
DIELECTRIC                 37.50
$END
--------------------------------------------------------------

             Standard Nuclear Orientation (Angstroms)
    I     Atom           X                Y                Z
 ----------------------------------------------------------------
    1      C       0.4820632164    11.8631110104    20.4299714110
    2      C       0.4211143567    10.4392075365    19.8476567487
    3      C       1.5093850586     9.5386523081    20.4582992652
    4      C       1.4277969665     9.5244738199    21.9939055613
    5      C       1.4871674439    10.9449070791    22.5777157187
    6      C       0.4011703209    11.8437032248    21.9655133578
    7      H       1.4099397643     8.5220786761    20.0569446785
    8      H      -0.5618031407    10.0077791320    20.0623601753
    9      H       1.4271742700    12.3322073462    20.1169651099
   10      H      -0.3324080596    12.4652430868    20.0075385090
   11      H       0.4859273504     9.0454740014    22.3011076124
   12      H       2.2409875207     8.9092017008    22.4002496775
   13      H       1.3772361611    10.9094278026    23.6696044878
   14      H       2.4767612750    11.3805367254    22.3720117966
   15      H      -0.5895054782    11.4742094433    22.2705528325
   16      H       0.4882244237    12.8672570797    22.3524574940
   17      H       2.4957094864     9.9145764054    20.1462477900
   18      N       0.5387716537    10.4697528803    18.3858896459
   19      H       1.4137544335    10.8019655491    17.9920391233
   20      C      -0.4187575840    10.1082912974    17.5138053152
   21      H      -0.1018558736    10.2200893631    16.4640113184
   22      O      -1.5488535656     9.6878545316    17.8051523711
 ----------------------------------------------------------------

   12    -404.6019859416      3.39e-09  Convergence criterion met
 Total energy in the final basis set =     -404.6019859416

                    Orbital Energies (a.u.)
 --------------------------------------------------------------

 Alpha MOs
 -- Occupied --
-19.1348 -14.3717 -10.2939 -10.2254 -10.1825 -10.1822 -10.1797 -10.1796
-10.1776  -1.0389  -0.9331  -0.8242  -0.7427  -0.7408  -0.6368  -0.6109
 -0.5919  -0.5631  -0.5263  -0.4837  -0.4607  -0.4418  -0.4373  -0.4192
 -0.4180  -0.3953  -0.3783  -0.3736  -0.3473  -0.3430  -0.3215  -0.3117
 -0.3092  -0.2709  -0.2608

          Ground-State Mulliken Net Atomic Charges

     Atom                 Charge (a.u.)
  ----------------------------------------
      1 C                    -0.271224
      2 C                    -0.432099
      3 C                    -0.287457
      4 C                    -0.453080
      5 C                    -0.381113
      6 C                    -0.455515
      7 H                     0.211155
      8 H                     0.227192
      9 H                     0.214434
     10 H                     0.210291
     11 H                     0.207545
     12 H                     0.203261
     13 H                     0.199321
     14 H                     0.203084
     15 H                     0.207423
     16 H                     0.203227
     17 H                     0.214516
     18 N                    -0.383423
     19 H                     0.452402
     20 C                     0.346128
     21 H                     0.184576
     22 O                    -0.620644
  ----------------------------------------
  Sum of atomic charges =     0.000000

                    Cartesian Multipole Moments
 -----------------------------------------------------------------
    Charge (ESU x 10^10)
                -0.0000
    Dipole Moment (Debye)
         X       5.5064      Y       2.0878      Z       1.1893
       Tot       6.0079
    Quadrupole Moments (Debye-Ang)
        XX     -61.0699     XY      55.0507     YY     -14.6230
        XZ      99.3663     YZ      49.9342     ZZ      -7.5006

 Frequency:       -13.44                  93.79                 192.56
 Force Cnst:      0.0005                 0.0194                 0.0488
 Red. Mass:       4.7911                 3.7447                 2.2351
 IR Intens:       15.199                  9.849                 58.875
 Frequency:       207.86                 227.33                 333.58
 Force Cnst:      0.0895                 0.0544                 0.1236
 Red. Mass:       3.5167                 1.7859                 1.8857
 IR Intens:       12.260                  0.191                  0.124
 Frequency:       397.92                 409.47                 449.59
 Force Cnst:      0.3343                 0.3646                 0.2683
 Red. Mass:       3.5838                 3.6912                 2.2530
 IR Intens:       12.422                 31.776                  0.724
 Frequency:       464.43                 531.56                 603.59
 Force Cnst:      0.4734                 0.2679                 0.2464
 Red. Mass:       3.7252                 1.6093                 1.1477
 IR Intens:       11.926                  2.334                104.688
 Frequency:       744.28                 799.15                 821.31
 Force Cnst:      1.3728                 0.5418                 0.9686
 Red. Mass:       4.2062                 1.4400                 2.4371
 IR Intens:        6.000                  0.165                  0.869
 Frequency:       849.67                 901.68                 916.45
 Force Cnst:      0.8482                 0.8787                 0.9699
 Red. Mass:       1.9941                 1.8344                 1.9599
 IR Intens:        2.914                 16.975                  1.239
 Frequency:       935.63                 964.15                1027.61
 Force Cnst:      0.7775                 1.2864                 0.9882
 Red. Mass:       1.5075                 2.3487                 1.5883
 IR Intens:        0.533                  7.523                  0.020
 Frequency:      1035.41                1063.21                1069.51
 Force Cnst:      1.1142                 0.9269                 2.4888
 Red. Mass:       1.7639                 1.3917                 3.6929
 IR Intens:        2.766                  2.645                 22.435
 Frequency:      1091.35                1103.53                1174.33
 Force Cnst:      0.8086                 1.7807                 1.8933
 Red. Mass:       1.1523                 2.4818                 2.3302
 IR Intens:        0.006                  2.042                  6.808
 Frequency:      1209.99                1243.69                1274.62
 Force Cnst:      1.2793                 1.5867                 1.2616
 Red. Mass:       1.4831                 1.7411                 1.3180
 IR Intens:        1.556                 59.487                 16.616
 Frequency:      1287.84                1297.01                1342.05
 Force Cnst:      1.2351                 1.3945                 1.3570
 Red. Mass:       1.2640                 1.4069                 1.2788
 IR Intens:        2.703                 11.707                  2.935
 Frequency:      1343.97                1374.53                1382.72
 Force Cnst:      1.3131                 1.5423                 1.5677
 Red. Mass:       1.2339                 1.3855                 1.3917
 IR Intens:       12.062                  1.458                  0.488
 Frequency:      1384.43                1386.91                1404.46
 Force Cnst:      1.6530                 1.6884                 1.7188
 Red. Mass:       1.4638                 1.4898                 1.4790
 IR Intens:        0.102                 11.678                  0.815
 Frequency:      1426.20                1493.99                1496.10
 Force Cnst:      1.5056                 1.4310                 1.4343
 Red. Mass:       1.2563                 1.0882                 1.0876
 IR Intens:       74.435                  0.096                  5.630
 Frequency:      1499.36                1500.08                1512.17
 Force Cnst:      1.4551                 1.4490                 1.4833
 Red. Mass:       1.0986                 1.0930                 1.1010
 IR Intens:        7.786                 10.940                  0.474
 Frequency:      1561.60                1691.29                3014.15
 Force Cnst:      2.6995                 9.1532                 5.7225
 Red. Mass:       1.8789                 5.4310                 1.0691
 IR Intens:      328.600                805.164                 35.176
 Frequency:      3015.19                3018.75                3019.34
 Force Cnst:      5.7215                 5.7226                 5.7033
 Red. Mass:       1.0681                 1.0658                 1.0618
 IR Intens:       49.919                 12.585                  8.748
 Frequency:      3021.10                3034.78                3062.20
 Force Cnst:      5.7112                 5.8927                 6.0477
 Red. Mass:       1.0621                 1.0859                 1.0947
 IR Intens:      148.070                120.477                118.307
 Frequency:      3063.46                3067.06                3068.51
 Force Cnst:      6.0643                 6.0784                 6.0870
 Red. Mass:       1.0967                 1.0967                 1.0972
 IR Intens:      130.789                 77.075                102.664
 Frequency:      3070.35                3096.76                3579.08
 Force Cnst:      6.1130                 6.1473                 8.1397
 Red. Mass:       1.1006                 1.0880                 1.0785
 IR Intens:       46.941                 61.318                 68.089
 Frequency:       -13.43                  93.13                 172.43
 Force Cnst:      0.0005                 0.0192                 0.0492
 Red. Mass:       4.8005                 3.7651                 2.8092
 IR Intens:       15.171                  9.577                 47.997
 Frequency:       207.51                 227.32                 333.37
 Force Cnst:      0.0905                 0.0543                 0.1241
 Red. Mass:       3.5673                 1.7850                 1.8955
 IR Intens:       10.853                  0.114                  0.109
 Frequency:       393.03                 402.65                 449.41
 Force Cnst:      0.3330                 0.3849                 0.2704
 Red. Mass:       3.6587                 4.0293                 2.2726
 IR Intens:       11.796                 21.736                  0.769
 Frequency:       459.87                 529.04                 595.15
 Force Cnst:      0.4387                 0.2654                 0.2369
 Red. Mass:       3.5208                 1.6093                 1.1353
 IR Intens:        3.424                  1.916                126.074
 Frequency:       734.85                 799.15                 819.26
 Force Cnst:      1.3248                 0.5418                 0.9551
 Red. Mass:       4.1639                 1.4399                 2.4153
 IR Intens:        5.742                  0.163                  0.631
 Frequency:       848.65                 863.32                 901.73
 Force Cnst:      0.8602                 1.7694                 0.8758
 Red. Mass:       2.0272                 4.0294                 1.8280
 IR Intens:        3.423                  1.021                 16.754
 Frequency:       914.13                 935.76                 942.05
 Force Cnst:      1.0085                 0.7789                 1.1801
 Red. Mass:       2.0484                 1.5097                 2.2570
 IR Intens:        2.113                  0.614                  6.926
 Frequency:      1021.74                1035.89                1062.35
 Force Cnst:      1.4216                 1.1386                 0.9373
 Red. Mass:       2.3113                 1.8009                 1.4095
 IR Intens:        8.088                  1.847                  2.343
 Frequency:      1091.30                1103.05                1118.80
 Force Cnst:      0.8025                 1.8120                 2.4350
 Red. Mass:       1.1436                 2.5277                 3.3017
 IR Intens:        0.004                  1.815                 26.702
 Frequency:      1178.26                1209.49                1246.03
 Force Cnst:      2.0676                 1.2786                 1.8565
 Red. Mass:       2.5278                 1.4835                 2.0295
 IR Intens:       19.205                  1.333                 46.097
 Frequency:      1274.07                1287.83                1295.69
 Force Cnst:      1.2554                 1.2352                 1.3757
 Red. Mass:       1.3127                 1.2641                 1.3908
 IR Intens:       13.555                  2.661                  7.035
 Frequency:      1341.67                1343.19                1374.48
 Force Cnst:      1.3315                 1.3199                 1.5419
 Red. Mass:       1.2554                 1.2417                 1.3853
 IR Intens:        5.546                  7.176                  1.402
 Frequency:      1382.64                1384.43                1386.89
 Force Cnst:      1.5666                 1.6534                 1.6874
 Red. Mass:       1.3909                 1.4641                 1.4890
 IR Intens:        0.428                  0.100                 11.265
 Frequency:      1403.98                1493.99                1496.10
 Force Cnst:      1.7072                 1.4310                 1.4342
 Red. Mass:       1.4700                 1.0882                 1.0876
 IR Intens:        0.567                  0.098                  5.694
 Frequency:      1499.36                1500.07                1512.14
 Force Cnst:      1.4551                 1.4490                 1.4834
 Red. Mass:       1.0986                 1.0929                 1.1011
 IR Intens:        7.760                 10.753                  0.662
 Frequency:      1555.31                1668.03                2242.18
 Force Cnst:      2.5184                14.0453                 7.0917
 Red. Mass:       1.7670                 8.5678                 2.3942
 IR Intens:      268.249                919.226                 98.833
 Frequency:      3014.16                3015.19                3018.76
 Force Cnst:      5.7224                 5.7215                 5.7224
 Red. Mass:       1.0691                 1.0681                 1.0658
 IR Intens:       34.505                 49.960                 11.941
 Frequency:      3019.34                3021.10                3062.19
 Force Cnst:      5.7034                 5.7113                 6.0477
 Red. Mass:       1.0618                 1.0621                 1.0947
 IR Intens:        8.609                152.299                121.098
 Frequency:      3063.46                3067.06                3068.50
 Force Cnst:      6.0643                 6.0786                 6.0868
 Red. Mass:       1.0967                 1.0968                 1.0972
 IR Intens:      130.795                 76.873                101.011
 Frequency:      3070.35                3096.71                3579.04
 Force Cnst:      6.1130                 6.1472                 8.1393
 Red. Mass:       1.1006                 1.0880                 1.0785
 IR Intens:       46.922                 64.480                 68.754

 STANDARD THERMODYNAMIC QUANTITIES AT   298.18 K  AND     1.00 ATM

   This Molecule has  1 Imaginary Frequencies
   Zero point vibrational energy:      121.838 kcal/mol

   Atom    1 Element C  Has Mass   12.00000
   Atom    2 Element C  Has Mass   12.00000
   Atom    3 Element C  Has Mass   12.00000
   Atom    4 Element C  Has Mass   12.00000
   Atom    5 Element C  Has Mass   12.00000
   Atom    6 Element C  Has Mass   12.00000
   Atom    7 Element H  Has Mass    1.00783
   Atom    8 Element H  Has Mass    1.00783
   Atom    9 Element H  Has Mass    1.00783
   Atom   10 Element H  Has Mass    1.00783
   Atom   11 Element H  Has Mass    1.00783
   Atom   12 Element H  Has Mass    1.00783
   Atom   13 Element H  Has Mass    1.00783
   Atom   14 Element H  Has Mass    1.00783
   Atom   15 Element H  Has Mass    1.00783
   Atom   16 Element H  Has Mass    1.00783
   Atom   17 Element H  Has Mass    1.00783
   Atom   18 Element N  Has Mass   14.00307
   Atom   19 Element H  Has Mass    1.00783
   Atom   20 Element C  Has Mass   12.00000
   Atom   21 Element H  Has Mass    2.01410
   Atom   22 Element O  Has Mass   15.99491
   Molecular Mass:   128.106042 amu
   Principal axes and moments of inertia in amu*Bohr^2:
                             1           2           3
    Eigenvalues --      537.70772  2029.76456  2230.66678
          X               0.39032    -0.42618     0.81610
          Y               0.16163     0.90436     0.39497
          Z               0.90638     0.02226    -0.42188
   Rotational Symmetry Number is   1
   The Molecule is an Asymmetric Top
   Translational Enthalpy:        0.889 kcal/mol
   Rotational Enthalpy:           0.889 kcal/mol
   Vibrational Enthalpy:        125.119 kcal/mol
   gas constant (RT):             0.593 kcal/mol
   Translational Entropy:        40.457  cal/mol.K
   Rotational Entropy:           29.278  cal/mol.K
   Vibrational Entropy:          18.121  cal/mol.K

   Total Enthalpy:              127.489 kcal/mol
   Total Entropy:                87.856  cal/mol.K

 Total job time:  900.35s(wall), 12391.43s(cpu)
        *  Thank you very much for using Q-Chem.  Have a nice day.  *
