 Q-Chem 5.2 (devel), Q-Chem, Inc., Pleasanton, CA (2019)
 Q-Chem 5.2.2 for Intel X86 EM64T Linux

User input:
--------------------------------------------------------------
$molecule
0 1
C    0.58000    11.83000   20.41000
C    0.42000    10.41000   19.83000
C    1.53000    9.53000    20.44000
C    1.44000    9.53000    21.98000
C    1.37000    10.92000   22.65000
C    0.42000    11.90000   21.94000
H    1.49000    8.50000    20.05000
H    -0.52000   10.00000   20.20000
H    1.40000    12.47000   20.08000
H    -0.28000   12.43000   20.08000
H    0.54000    9.00000    22.28000
H    2.32000    8.99000    22.34000
H    1.27000    10.83000   23.73000
H    2.37000    11.32000   22.50000
H    -0.63000   11.62000   22.11000
H    0.56000    12.91000   22.33000
H    2.51000    9.84000    20.07000
N    0.54000    10.41000   18.38000
H    1.39000    10.78000   17.99000
C    -0.47000   10.09000   17.50000
H    -0.16000   10.30000   16.46000
O    -1.56000   9.66000    17.84000
$end

$rem
JOBTYPE  OPT
METHOD  B3LYP
BASIS  6-31+G(D)
SYMMETRY  FALSE
SYM_IGNORE  FALSE
MEM_TOTAL  8000
MEM_STATIC  2000
MAX_SUB_FILE_NUM  16000
BASIS_LIN_DEP_THRESH  6
THRESH  14
SCF_CONVERGENCE  8
GEN_SCFMAN  TRUE
SCF_GUESS  SAD
FD_MAT_VEC_PROD  FALSE
XC_GRID  000099000590
NL_GRID  1
MAX_SCF_CYCLES  200
GEOM_OPT_TOL_GRADIENT  100
GEOM_OPT_TOL_DISPLACEMENT  100
GEOM_OPT_TOL_ENERGY  10
SOLVENT_METHOD       PCM
$end

$PCM
THEORY                     CPCM
METHOD                     SWIG
SOLVER                     INVERSION
HPOINTS                    302
HEAVYPOINTS                302
$END

$SOLVENT
DIELECTRIC                 15.62
$END

--------------------------------------------------------------

   13    -404.5818618754      5.86e-09  Convergence criterion met
 Total energy in the final basis set =     -404.5818618754
   12    -404.5926215691      2.87e-09  Convergence criterion met
 Total energy in the final basis set =     -404.5926215691
   12    -404.5983749492      2.93e-09  Convergence criterion met
 Total energy in the final basis set =     -404.5983749492
   12    -404.6002350993      3.08e-09  Convergence criterion met
 Total energy in the final basis set =     -404.6002350993
   12    -404.6010847842      3.18e-09  Convergence criterion met
 Total energy in the final basis set =     -404.6010847842
   12    -404.6012231520      3.24e-09  Convergence criterion met
 Total energy in the final basis set =     -404.6012231520
   12    -404.6012342721      3.21e-09  Convergence criterion met
 Total energy in the final basis set =     -404.6012342721
   12    -404.6012368019      3.21e-09  Convergence criterion met
 Total energy in the final basis set =     -404.6012368019
   12    -404.6012375395      3.21e-09  Convergence criterion met
 Total energy in the final basis set =     -404.6012375395
   12    -404.6012376298      3.21e-09  Convergence criterion met
 Total energy in the final basis set =     -404.6012376298
 Final energy is   -404.601237629807
 **  OPTIMIZATION CONVERGED  **
 Total job time:  728.98s(wall), 10135.61s(cpu)
        *  Thank you very much for using Q-Chem.  Have a nice day.  *

User input: 2 of 2

                  Welcome to Q-Chem
     A Quantum Leap Into The Future Of Chemistry

 Q-Chem 5.2 (devel), Q-Chem, Inc., Pleasanton, CA (2019)

 Yihan Shao,  Zhengting Gan,  E. Epifanovsky,  A. T. B. Gilbert,  M. Wormit,
 J. Kussmann,  A. W. Lange,  A. Behn,  Jia Deng,  Xintian Feng,  D. Ghosh,
 M. Goldey,  P. R. Horn,  L. D. Jacobson,  I. Kaliman,  T. Kus,  A. Landau,
 Jie Liu,  E. I. Proynov,  R. M. Richard,  R. P. Steele,  E. J. Sundstrom,
 H. L. Woodcock III,  P. M. Zimmerman,  D. Zuev,  B. Alam,  B. Albrecht,
 E. Alguire,  S. A. Baeppler,  D. Barton,  Z. Benda,  Y. A. Bernard,
 E. J. Berquist,  K. B. Bravaya,  H. Burton,  K. Carter-Fenk,  D. Casanova,
 Chun-Min Chang,  Yunqing Chen,  A. Chien,  K. D. Closser,  M. P. Coons,
 S. Coriani,  S. Dasgupta,  A. L. Dempwolff,  M. Diedenhofen,  Hainam Do,
 R. G. Edgar,  Po-Tung Fang,  S. Faraji,  S. Fatehi,  Qingguo Feng,
 J. Fosso-Tande,  J. Gayvert,  Qinghui Ge,  A. Ghysels,  G. Gidofalvi,
 J. Gomes,  J. Gonthier,  A. Gunina,  D. Hait,  M. W. D. Hanson-Heine,
 P. H. P. Harbach,  A. W. Hauser,  M. F. Herbst,  J. E. Herr,
 E. G. Hohenstein,  Z. C. Holden,  Kerwin Hui,  B. C. Huynh,  T.-C. Jagau,
 Hyunjun Ji,  B. Kaduk,  K. Khistyaev,  Jaehoon Kim,  P. Klunzinger,  K. Koh,
 D. Kosenkov,  L. Koulias,  T. Kowalczyk,  C. M. Krauter,  A. Kunitsa,
 Ka Un Lao,  A. Laurent,  K. V. Lawler,  Joonho Lee,  D. Lefrancois,
 S. Lehtola,  D. S. Levine,  Yi-Pei Li,  You-Sheng Lin,  Fenglai Liu,
 Kuan-Yu Liu,  E. Livshits,  M. Loipersberger,  A. Luenser,  P. Manohar,
 E. Mansoor,  S. F. Manzer,  Shan-Ping Mao,  Yuezhi Mao,  N. Mardirossian,
 A. V. Marenich,  T. Markovich,  L. A. Martinez-Martinez,  S. A. Maurer,
 N. J. Mayhall,  S. C. McKenzie,  J.-M. Mewes,  P. Morgante,  A. F. Morrison,
 J. W. Mullinax,  K. Nanda,  T. S. Nguyen-Beck,  R. Olivares-Amaya,
 J. A. Parkhill,  S. K. Paul,  F. Pavosevic,  Zheng Pei,  T. M. Perrine,
 F. Plasser,  P. Pokhilko,  S. Prager,  A. Prociuk,  E. Ramos,  B. Rana,
 D. R. Rehn,  F. Rob,  M. Scheurer,  M. Schneider,  N. Sergueev,
 S. M. Sharada,  S. Sharma,  D. W. Small,  T. Stauch,  C. J. Stein,
 T. Stein,  Yu-Chuan Su,  S. P. Veccham,  Zhen Tao,  A. J. W. Thom,
 A. Tkatchenko,  T. Tsuchimochi,  N. M. Tubman,  L. Vogt,  M. L. Vidal,
 O. Vydrov,  M. A. Watson,  J. Wenzel,  M. de Wergifosse,  T. A. Wesolowski,
 A. White,  J. Witte,  A. Yamada,  Jun Yang,  K. Yao,  S. Yeganeh,
 S. R. Yost,  Zhi-Qiang You,  A. Zech,  Igor Ying Zhang,  Xing Zhang,
 Yan Zhao,  Ying Zhu,  B. R. Brooks,  G. K. L. Chan,  C. J. Cramer,
 M. S. Gordon,  W. J. Hehre,  A. Klamt,  M. W. Schmidt,  C. D. Sherrill,
 D. G. Truhlar,  A. Aspuru-Guzik,  R. Baer,  A. T. Bell,  N. A. Besley,
 Jeng-Da Chai,  A. E. DePrince, III,  R. A. DiStasio Jr.,  A. Dreuw,
 B. D. Dunietz,  T. R. Furlani,  Chao-Ping Hsu,  Yousung Jung,  Jing Kong,
 D. S. Lambrecht,  WanZhen Liang,  C. Ochsenfeld,  V. A. Rassolov,
 L. V. Slipchenko,  J. E. Subotnik,  T. Van Voorhis,  J. M. Herbert,
 A. I. Krylov,  P. M. W. Gill,  M. Head-Gordon

 Contributors to earlier versions of Q-Chem not listed above:
 R. D. Adamson,  B. Austin,  J. Baker,  G. J. O. Beran,  K. Brandhorst,
 S. T. Brown,  E. F. C. Byrd,  A. K. Chakraborty,  C.-L. Cheng,
 Siu Hung Chien,  D. M. Chipman,  D. L. Crittenden,  H. Dachsel,
 R. J. Doerksen,  A. D. Dutoi,  L. Fusti-Molnar,  W. A. Goddard III,
 A. Golubeva-Zadorozhnaya,  S. R. Gwaltney,  G. Hawkins,  A. Heyden,
 S. Hirata,  G. Kedziora,  F. J. Keil,  C. Kelley,  Jihan Kim,  R. A. King,
 R. Z. Khaliullin,  P. P. Korambath,  W. Kurlancheek,  A. M. Lee,  M. S. Lee,
 S. V. Levchenko,  Ching Yeh Lin,  D. Liotard,  R. C. Lochan,  I. Lotan,
 P. E. Maslen,  N. Nair,  D. P. O'Neill,  D. Neuhauser,  E. Neuscamman,
 C. M. Oana,  R. Olson,  B. Peters,  R. Peverati,  P. A. Pieniazek,
 Y. M. Rhee,  J. Ritchie,  M. A. Rohrdanz,  E. Rosta,  N. J. Russ,
 H. F. Schaefer III,  N. E. Schultz,  N. Shenvi,  A. C. Simmonett,  A. Sodt,
 D. Stuck,  K. S. Thanthiriwatte,  V. Vanovschi,  Tao Wang,  A. Warshel,
 C. F. Williams,  Q. Wu,  X. Xu,  W. Zhang

 Please cite Q-Chem as follows:
 Y. Shao et al., Mol. Phys. 113, 184-215 (2015)
 DOI: 10.1080/00268976.2014.952696

 Q-Chem 5.2.2 for Intel X86 EM64T Linux

 Parts of Q-Chem use Armadillo 9.800.1 (Horizon Scraper).
 http://arma.sourceforge.net/

 Q-Chem begins on Thu Apr  8 15:20:58 2021

Host: node024
0

     Scratch files written to /home/ymao90/scratch/probe_b3lyp_cyclohexanone20210408150847//
The previous job contains 0 fragments, simply inherited here
Symmetry turned off for PCM/SM12/SMD calculation

Checking the input file for inconsistencies... 	...done.

--------------------------------------------------------------
User input:
--------------------------------------------------------------

$molecule
read
$end

$rem
JOBTYPE  FREQ
METHOD  B3LYP
BASIS  6-31+G(D)
SYMMETRY  FALSE
SYM_IGNORE  FALSE
MEM_TOTAL  8000
MEM_STATIC  2000
MAX_SUB_FILE_NUM  16000
BASIS_LIN_DEP_THRESH  6
THRESH  14
SCF_CONVERGENCE  8
GEN_SCFMAN  TRUE
SCF_GUESS  READ
FD_MAT_VEC_PROD  FALSE
XC_GRID  000099000590
NL_GRID  1
MAX_SCF_CYCLES  200
ISOTOPES TRUE
SOLVENT_METHOD  PCM
$end

$isotopes
1 0
1
 21 2.0141018
$end

$PCM
THEORY                     CPCM
METHOD                     SWIG
SOLVER                     INVERSION
HPOINTS                    302
HEAVYPOINTS                302
$END

$SOLVENT
DIELECTRIC                 15.62
$END
--------------------------------------------------------------

             Standard Nuclear Orientation (Angstroms)
    I     Atom           X                Y                Z
 ----------------------------------------------------------------
    1      C       0.4824902086    11.8631449136    20.4298013263
    2      C       0.4220211127    10.4393471548    19.8471704383
    3      C       1.5100068476     9.5387950822    20.4583195156
    4      C       1.4278138798     9.5244465256    21.9938980963
    5      C       1.4867038841    10.9448021059    22.5779430392
    6      C       0.4009621383    11.8436115265    21.9653087945
    7      H       1.4107843108     8.5222954481    20.0567779675
    8      H      -0.5609837714    10.0078430383    20.0613038331
    9      H       1.4276472554    12.3327457744    20.1173995300
   10      H      -0.3318605961    12.4651478794    20.0070256024
   11      H       0.4858871506     9.0452610846    22.3005607916
   12      H       2.2407886859     8.9091618073    22.4006558777
   13      H       1.3762641272    10.9091688618    23.6697619789
   14      H       2.4764201043    11.3805836853    22.3729939225
   15      H      -0.5898390072    11.4740656012    22.2698000362
   16      H       0.4876602894    12.8670912781    22.3525262525
   17      H       2.4966886399     9.9145621622    20.1469055778
   18      N       0.5394671390    10.4696476885    18.3855049647
   19      H       1.4141905359    10.8012888663    17.9909264430
   20      C      -0.4200255592    10.1082983579    17.5142500824
   21      H      -0.1039470653    10.2195750073    16.4639191091
   22      O      -1.5491403102     9.6891161505    17.8072468204
 ----------------------------------------------------------------

   12    -404.6012376293      3.21e-09  Convergence criterion met
 Total energy in the final basis set =     -404.6012376293

                    Orbital Energies (a.u.)
 --------------------------------------------------------------

 Alpha MOs
 -- Occupied --
-19.1342 -14.3718 -10.2937 -10.2256 -10.1831 -10.1827 -10.1803 -10.1801
-10.1782  -1.0388  -0.9331  -0.8247  -0.7430  -0.7413  -0.6371  -0.6114
 -0.5922  -0.5635  -0.5266  -0.4839  -0.4610  -0.4422  -0.4377  -0.4192
 -0.4180  -0.3957  -0.3788  -0.3739  -0.3477  -0.3436  -0.3221  -0.3123
 -0.3097  -0.2704  -0.2608

          Ground-State Mulliken Net Atomic Charges

     Atom                 Charge (a.u.)
  ----------------------------------------
      1 C                    -0.270222
      2 C                    -0.435479
      3 C                    -0.286744
      4 C                    -0.451643
      5 C                    -0.381532
      6 C                    -0.454084
      7 H                     0.211320
      8 H                     0.228280
      9 H                     0.213197
     10 H                     0.210541
     11 H                     0.207596
     12 H                     0.203034
     13 H                     0.199296
     14 H                     0.202606
     15 H                     0.207488
     16 H                     0.203009
     17 H                     0.213244
     18 N                    -0.383885
     19 H                     0.449585
     20 C                     0.345436
     21 H                     0.182530
     22 O                    -0.613574
  ----------------------------------------
  Sum of atomic charges =     0.000000

                    Cartesian Multipole Moments
 -----------------------------------------------------------------
    Charge (ESU x 10^10)
                 0.0000
    Dipole Moment (Debye)
         X       5.4111      Y       2.0481      Z       1.1801
       Tot       5.9048
    Quadrupole Moments (Debye-Ang)
        XX     -61.0550     XY      54.0790     YY     -15.4329
        XZ      97.6101     YZ      49.1104     ZZ      -7.8457

 Frequency:       -13.16                  94.23                 191.89
 Force Cnst:      0.0005                 0.0195                 0.0483
 Red. Mass:       4.7909                 3.7351                 2.2264
 IR Intens:       14.627                  9.541                 57.929
 Frequency:       208.08                 227.38                 333.63
 Force Cnst:      0.0900                 0.0544                 0.1237
 Red. Mass:       3.5281                 1.7857                 1.8860
 IR Intens:       11.962                  0.181                  0.124
 Frequency:       397.94                 408.93                 449.52
 Force Cnst:      0.3345                 0.3655                 0.2681
 Red. Mass:       3.5853                 3.7094                 2.2518
 IR Intens:       12.311                 31.421                  0.703
 Frequency:       464.11                 531.70                 599.84
 Force Cnst:      0.4716                 0.2681                 0.2433
 Red. Mass:       3.7159                 1.6098                 1.1475
 IR Intens:       11.469                  2.284                100.835
 Frequency:       744.42                 799.20                 821.46
 Force Cnst:      1.3717                 0.5419                 0.9699
 Red. Mass:       4.2012                 1.4401                 2.4395
 IR Intens:        5.852                  0.163                  0.850
 Frequency:       849.75                 901.84                 916.61
 Force Cnst:      0.8488                 0.8806                 0.9699
 Red. Mass:       1.9951                 1.8376                 1.9594
 IR Intens:        2.778                 16.386                  1.178
 Frequency:       935.70                 964.33                1027.04
 Force Cnst:      0.7770                 1.2873                 0.9877
 Red. Mass:       1.5062                 2.3495                 1.5892
 IR Intens:        0.531                  7.321                  0.024
 Frequency:      1035.64                1063.49                1069.79
 Force Cnst:      1.1156                 0.9279                 2.4869
 Red. Mass:       1.7653                 1.3925                 3.6881
 IR Intens:        2.699                  2.577                 21.372
 Frequency:      1091.62                1103.54                1174.48
 Force Cnst:      0.8095                 1.7838                 1.8908
 Red. Mass:       1.1530                 2.4862                 2.3265
 IR Intens:        0.008                  2.013                  6.310
 Frequency:      1210.34                1242.26                1274.96
 Force Cnst:      1.2792                 1.5942                 1.2631
 Red. Mass:       1.4821                 1.7534                 1.3189
 IR Intens:        1.517                 62.388                 16.473
 Frequency:      1288.20                1296.90                1342.27
 Force Cnst:      1.2356                 1.3866                 1.3582
 Red. Mass:       1.2638                 1.3992                 1.2794
 IR Intens:        2.717                 11.321                  2.899
 Frequency:      1344.29                1374.76                1383.00
 Force Cnst:      1.3136                 1.5427                 1.5531
 Red. Mass:       1.2337                 1.3855                 1.3781
 IR Intens:       12.401                  1.418                  0.541
 Frequency:      1384.71                1387.23                1404.64
 Force Cnst:      1.6682                 1.6884                 1.7196
 Red. Mass:       1.4767                 1.4891                 1.4792
 IR Intens:        0.065                 11.310                  0.861
 Frequency:      1426.70                1494.41                1496.68
 Force Cnst:      1.5021                 1.4317                 1.4361
 Red. Mass:       1.2525                 1.0881                 1.0881
 IR Intens:       67.673                  0.104                  5.424
 Frequency:      1499.84                1500.65                1512.86
 Force Cnst:      1.4559                 1.4491                 1.4847
 Red. Mass:       1.0985                 1.0922                 1.1010
 IR Intens:        7.658                 11.170                  0.480
 Frequency:      1560.72                1695.41                3013.98
 Force Cnst:      2.6901                 9.3869                 5.7206
 Red. Mass:       1.8744                 5.5427                 1.0688
 IR Intens:      320.934                782.448                 34.950
 Frequency:      3014.69                3018.55                3019.30
 Force Cnst:      5.7194                 5.7314                 5.7053
 Red. Mass:       1.0681                 1.0676                 1.0622
 IR Intens:       44.827                  3.304                  4.906
 Frequency:      3020.81                3031.75                3062.37
 Force Cnst:      5.7030                 5.8805                 6.0471
 Red. Mass:       1.0607                 1.0859                 1.0944
 IR Intens:      158.597                122.345                116.596
 Frequency:      3063.63                3067.27                3068.77
 Force Cnst:      6.0657                 6.0814                 6.0858
 Red. Mass:       1.0969                 1.0971                 1.0968
 IR Intens:      125.540                 77.748                 95.421
 Frequency:      3070.52                3097.05                3580.02
 Force Cnst:      6.1112                 6.1483                 8.1437
 Red. Mass:       1.1002                 1.0880                 1.0785
 IR Intens:       47.703                 57.678                 63.479
 Frequency:       -13.14                  93.57                 171.80
 Force Cnst:      0.0005                 0.0194                 0.0487
 Red. Mass:       4.8002                 3.7555                 2.8028
 IR Intens:       14.600                  9.278                 47.096
 Frequency:       207.75                 227.37                 333.42
 Force Cnst:      0.0909                 0.0544                 0.1242
 Red. Mass:       3.5742                 1.7848                 1.8958
 IR Intens:       10.695                  0.108                  0.109
 Frequency:       393.03                 402.20                 449.34
 Force Cnst:      0.3334                 0.3854                 0.2702
 Red. Mass:       3.6634                 4.0437                 2.2714
 IR Intens:       11.671                 21.433                  0.746
 Frequency:       459.70                 529.18                 591.06
 Force Cnst:      0.4374                 0.2656                 0.2337
 Red. Mass:       3.5130                 1.6098                 1.1354
 IR Intens:        3.291                  1.873                122.080
 Frequency:       734.98                 799.20                 819.40
 Force Cnst:      1.3236                 0.5419                 0.9564
 Red. Mass:       4.1585                 1.4400                 2.4176
 IR Intens:        5.596                  0.161                  0.617
 Frequency:       848.73                 863.03                 901.89
 Force Cnst:      0.8609                 1.7692                 0.8776
 Red. Mass:       2.0284                 4.0316                 1.8311
 IR Intens:        3.265                  0.948                 16.177
 Frequency:       914.27                 935.83                 942.08
 Force Cnst:      1.0088                 0.7784                 1.1800
 Red. Mass:       2.0483                 1.5085                 2.2567
 IR Intens:        2.026                  0.610                  6.672
 Frequency:      1021.75                1036.12                1062.67
 Force Cnst:      1.4207                 1.1396                 0.9379
 Red. Mass:       2.3098                 1.8016                 1.4096
 IR Intens:        7.664                  1.806                  2.281
 Frequency:      1091.56                1103.07                1119.00
 Force Cnst:      0.8032                 1.8157                 2.4356
 Red. Mass:       1.1441                 2.5328                 3.3013
 IR Intens:        0.006                  1.791                 25.842
 Frequency:      1178.49                1209.84                1244.90
 Force Cnst:      2.0691                 1.2785                 1.8633
 Red. Mass:       2.5286                 1.4825                 2.0406
 IR Intens:       18.576                  1.294                 47.874
 Frequency:      1274.43                1288.19                1295.66
 Force Cnst:      1.2574                 1.2357                 1.3689
 Red. Mass:       1.3140                 1.2639                 1.3840
 IR Intens:       13.494                  2.676                  6.908
 Frequency:      1341.90                1343.49                1374.71
 Force Cnst:      1.3341                 1.3191                 1.5424
 Red. Mass:       1.2575                 1.2404                 1.3853
 IR Intens:        5.376                  7.599                  1.366
 Frequency:      1382.92                1384.71                1387.21
 Force Cnst:      1.5525                 1.6679                 1.6875
 Red. Mass:       1.3778                 1.4764                 1.4884
 IR Intens:        0.477                  0.066                 10.985
 Frequency:      1404.16                1494.41                1496.68
 Force Cnst:      1.7080                 1.4317                 1.4361
 Red. Mass:       1.4703                 1.0881                 1.0881
 IR Intens:        0.616                  0.105                  5.500
 Frequency:      1499.83                1500.65                1512.82
 Force Cnst:      1.4559                 1.4491                 1.4848
 Red. Mass:       1.0985                 1.0922                 1.1011
 IR Intens:        7.633                 10.977                  0.669
 Frequency:      1554.50                1672.42                2239.99
 Force Cnst:      2.5135                14.1586                 7.0806
 Red. Mass:       1.7655                 8.5917                 2.3951
 IR Intens:      263.154                888.405                 99.468
 Frequency:      3013.98                3014.69                3018.56
 Force Cnst:      5.7206                 5.7194                 5.7311
 Red. Mass:       1.0688                 1.0681                 1.0676
 IR Intens:       34.285                 44.878                  4.154
 Frequency:      3019.31                3020.81                3062.37
 Force Cnst:      5.7055                 5.7030                 6.0471
 Red. Mass:       1.0622                 1.0607                 1.0944
 IR Intens:        4.804                162.140                119.112
 Frequency:      3063.63                3067.27                3068.76
 Force Cnst:      6.0657                 6.0815                 6.0856
 Red. Mass:       1.0969                 1.0971                 1.0968
 IR Intens:      125.545                 77.521                 93.962
 Frequency:      3070.52                3097.01                3579.98
 Force Cnst:      6.1112                 6.1482                 8.1433
 Red. Mass:       1.1002                 1.0880                 1.0784
 IR Intens:       47.676                 60.608                 64.112

 STANDARD THERMODYNAMIC QUANTITIES AT   298.18 K  AND     1.00 ATM

   This Molecule has  1 Imaginary Frequencies
   Zero point vibrational energy:      121.844 kcal/mol

   Atom    1 Element C  Has Mass   12.00000
   Atom    2 Element C  Has Mass   12.00000
   Atom    3 Element C  Has Mass   12.00000
   Atom    4 Element C  Has Mass   12.00000
   Atom    5 Element C  Has Mass   12.00000
   Atom    6 Element C  Has Mass   12.00000
   Atom    7 Element H  Has Mass    1.00783
   Atom    8 Element H  Has Mass    1.00783
   Atom    9 Element H  Has Mass    1.00783
   Atom   10 Element H  Has Mass    1.00783
   Atom   11 Element H  Has Mass    1.00783
   Atom   12 Element H  Has Mass    1.00783
   Atom   13 Element H  Has Mass    1.00783
   Atom   14 Element H  Has Mass    1.00783
   Atom   15 Element H  Has Mass    1.00783
   Atom   16 Element H  Has Mass    1.00783
   Atom   17 Element H  Has Mass    1.00783
   Atom   18 Element N  Has Mass   14.00307
   Atom   19 Element H  Has Mass    1.00783
   Atom   20 Element C  Has Mass   12.00000
   Atom   21 Element H  Has Mass    2.01410
   Atom   22 Element O  Has Mass   15.99491
   Molecular Mass:   128.106042 amu
   Principal axes and moments of inertia in amu*Bohr^2:
                             1           2           3
    Eigenvalues --      537.85556  2029.28814  2230.09351
          X               0.39043    -0.42658     0.81584
          Y               0.16147     0.90417     0.39549
          Z               0.90636     0.02267    -0.42190
   Rotational Symmetry Number is   1
   The Molecule is an Asymmetric Top
   Translational Enthalpy:        0.889 kcal/mol
   Rotational Enthalpy:           0.889 kcal/mol
   Vibrational Enthalpy:        125.127 kcal/mol
   gas constant (RT):             0.593 kcal/mol
   Translational Entropy:        40.457  cal/mol.K
   Rotational Entropy:           29.278  cal/mol.K
   Vibrational Entropy:          18.124  cal/mol.K

   Total Enthalpy:              127.497 kcal/mol
   Total Entropy:                87.859  cal/mol.K

 Total job time:  892.89s(wall), 12327.56s(cpu)
        *  Thank you very much for using Q-Chem.  Have a nice day.  *
