 Q-Chem 5.2 (devel), Q-Chem, Inc., Pleasanton, CA (2019)
 Q-Chem 5.2.2 for Intel X86 EM64T Linux

User input:
--------------------------------------------------------------
$molecule
0 1
C    0.58000    11.83000   20.41000
C    0.42000    10.41000   19.83000
C    1.53000    9.53000    20.44000
C    1.44000    9.53000    21.98000
C    1.37000    10.92000   22.65000
C    0.42000    11.90000   21.94000
H    1.49000    8.50000    20.05000
H    -0.52000   10.00000   20.20000
H    1.40000    12.47000   20.08000
H    -0.28000   12.43000   20.08000
H    0.54000    9.00000    22.28000
H    2.32000    8.99000    22.34000
H    1.27000    10.83000   23.73000
H    2.37000    11.32000   22.50000
H    -0.63000   11.62000   22.11000
H    0.56000    12.91000   22.33000
H    2.51000    9.84000    20.07000
N    0.54000    10.41000   18.38000
H    1.39000    10.78000   17.99000
C    -0.47000   10.09000   17.50000
H    -0.16000   10.30000   16.46000
O    -1.56000   9.66000    17.84000
$end

$rem
JOBTYPE  OPT
METHOD  B3LYP
BASIS  6-31+G(D)
SYMMETRY  FALSE
SYM_IGNORE  FALSE
MEM_TOTAL  8000
MEM_STATIC  2000
MAX_SUB_FILE_NUM  16000
BASIS_LIN_DEP_THRESH  6
THRESH  14
SCF_CONVERGENCE  8
GEN_SCFMAN  TRUE
SCF_GUESS  SAD
FD_MAT_VEC_PROD  FALSE
XC_GRID  000099000590
NL_GRID  1
MAX_SCF_CYCLES  200
GEOM_OPT_TOL_GRADIENT  100
GEOM_OPT_TOL_DISPLACEMENT  100
GEOM_OPT_TOL_ENERGY  10
SOLVENT_METHOD       PCM
$end

$PCM
THEORY                     CPCM
METHOD                     SWIG
SOLVER                     INVERSION
HPOINTS                    302
HEAVYPOINTS                302
$END

$SOLVENT
DIELECTRIC                 3.05
$END

--------------------------------------------------------------

   13    -404.5774116066      7.09e-09  Convergence criterion met
 Total energy in the final basis set =     -404.5774116066
   11    -404.5880043368      7.73e-09  Convergence criterion met
 Total energy in the final basis set =     -404.5880043368
   11    -404.5936456027      7.68e-09  Convergence criterion met
 Total energy in the final basis set =     -404.5936456027
   11    -404.5954639288      7.47e-09  Convergence criterion met
 Total energy in the final basis set =     -404.5954639288
   11    -404.5962911630      7.44e-09  Convergence criterion met
 Total energy in the final basis set =     -404.5962911630
   11    -404.5964314551      6.59e-09  Convergence criterion met
 Total energy in the final basis set =     -404.5964314551
   11    -404.5964423064      6.87e-09  Convergence criterion met
 Total energy in the final basis set =     -404.5964423064
   11    -404.5964454757      6.91e-09  Convergence criterion met
 Total energy in the final basis set =     -404.5964454757
   11    -404.5964465892      6.95e-09  Convergence criterion met
 Total energy in the final basis set =     -404.5964465892
   11    -404.5964467614      6.92e-09  Convergence criterion met
 Total energy in the final basis set =     -404.5964467614
   11    -404.5964467822      6.92e-09  Convergence criterion met
 Total energy in the final basis set =     -404.5964467822
 Final energy is   -404.596446782215
 **  OPTIMIZATION CONVERGED  **
 Total job time:  872.05s(wall), 12291.55s(cpu)
        *  Thank you very much for using Q-Chem.  Have a nice day.  *

User input: 2 of 2

                  Welcome to Q-Chem
     A Quantum Leap Into The Future Of Chemistry

 Q-Chem 5.2 (devel), Q-Chem, Inc., Pleasanton, CA (2019)

 Yihan Shao,  Zhengting Gan,  E. Epifanovsky,  A. T. B. Gilbert,  M. Wormit,
 J. Kussmann,  A. W. Lange,  A. Behn,  Jia Deng,  Xintian Feng,  D. Ghosh,
 M. Goldey,  P. R. Horn,  L. D. Jacobson,  I. Kaliman,  T. Kus,  A. Landau,
 Jie Liu,  E. I. Proynov,  R. M. Richard,  R. P. Steele,  E. J. Sundstrom,
 H. L. Woodcock III,  P. M. Zimmerman,  D. Zuev,  B. Alam,  B. Albrecht,
 E. Alguire,  S. A. Baeppler,  D. Barton,  Z. Benda,  Y. A. Bernard,
 E. J. Berquist,  K. B. Bravaya,  H. Burton,  K. Carter-Fenk,  D. Casanova,
 Chun-Min Chang,  Yunqing Chen,  A. Chien,  K. D. Closser,  M. P. Coons,
 S. Coriani,  S. Dasgupta,  A. L. Dempwolff,  M. Diedenhofen,  Hainam Do,
 R. G. Edgar,  Po-Tung Fang,  S. Faraji,  S. Fatehi,  Qingguo Feng,
 J. Fosso-Tande,  J. Gayvert,  Qinghui Ge,  A. Ghysels,  G. Gidofalvi,
 J. Gomes,  J. Gonthier,  A. Gunina,  D. Hait,  M. W. D. Hanson-Heine,
 P. H. P. Harbach,  A. W. Hauser,  M. F. Herbst,  J. E. Herr,
 E. G. Hohenstein,  Z. C. Holden,  Kerwin Hui,  B. C. Huynh,  T.-C. Jagau,
 Hyunjun Ji,  B. Kaduk,  K. Khistyaev,  Jaehoon Kim,  P. Klunzinger,  K. Koh,
 D. Kosenkov,  L. Koulias,  T. Kowalczyk,  C. M. Krauter,  A. Kunitsa,
 Ka Un Lao,  A. Laurent,  K. V. Lawler,  Joonho Lee,  D. Lefrancois,
 S. Lehtola,  D. S. Levine,  Yi-Pei Li,  You-Sheng Lin,  Fenglai Liu,
 Kuan-Yu Liu,  E. Livshits,  M. Loipersberger,  A. Luenser,  P. Manohar,
 E. Mansoor,  S. F. Manzer,  Shan-Ping Mao,  Yuezhi Mao,  N. Mardirossian,
 A. V. Marenich,  T. Markovich,  L. A. Martinez-Martinez,  S. A. Maurer,
 N. J. Mayhall,  S. C. McKenzie,  J.-M. Mewes,  P. Morgante,  A. F. Morrison,
 J. W. Mullinax,  K. Nanda,  T. S. Nguyen-Beck,  R. Olivares-Amaya,
 J. A. Parkhill,  S. K. Paul,  F. Pavosevic,  Zheng Pei,  T. M. Perrine,
 F. Plasser,  P. Pokhilko,  S. Prager,  A. Prociuk,  E. Ramos,  B. Rana,
 D. R. Rehn,  F. Rob,  M. Scheurer,  M. Schneider,  N. Sergueev,
 S. M. Sharada,  S. Sharma,  D. W. Small,  T. Stauch,  C. J. Stein,
 T. Stein,  Yu-Chuan Su,  S. P. Veccham,  Zhen Tao,  A. J. W. Thom,
 A. Tkatchenko,  T. Tsuchimochi,  N. M. Tubman,  L. Vogt,  M. L. Vidal,
 O. Vydrov,  M. A. Watson,  J. Wenzel,  M. de Wergifosse,  T. A. Wesolowski,
 A. White,  J. Witte,  A. Yamada,  Jun Yang,  K. Yao,  S. Yeganeh,
 S. R. Yost,  Zhi-Qiang You,  A. Zech,  Igor Ying Zhang,  Xing Zhang,
 Yan Zhao,  Ying Zhu,  B. R. Brooks,  G. K. L. Chan,  C. J. Cramer,
 M. S. Gordon,  W. J. Hehre,  A. Klamt,  M. W. Schmidt,  C. D. Sherrill,
 D. G. Truhlar,  A. Aspuru-Guzik,  R. Baer,  A. T. Bell,  N. A. Besley,
 Jeng-Da Chai,  A. E. DePrince, III,  R. A. DiStasio Jr.,  A. Dreuw,
 B. D. Dunietz,  T. R. Furlani,  Chao-Ping Hsu,  Yousung Jung,  Jing Kong,
 D. S. Lambrecht,  WanZhen Liang,  C. Ochsenfeld,  V. A. Rassolov,
 L. V. Slipchenko,  J. E. Subotnik,  T. Van Voorhis,  J. M. Herbert,
 A. I. Krylov,  P. M. W. Gill,  M. Head-Gordon

 Contributors to earlier versions of Q-Chem not listed above:
 R. D. Adamson,  B. Austin,  J. Baker,  G. J. O. Beran,  K. Brandhorst,
 S. T. Brown,  E. F. C. Byrd,  A. K. Chakraborty,  C.-L. Cheng,
 Siu Hung Chien,  D. M. Chipman,  D. L. Crittenden,  H. Dachsel,
 R. J. Doerksen,  A. D. Dutoi,  L. Fusti-Molnar,  W. A. Goddard III,
 A. Golubeva-Zadorozhnaya,  S. R. Gwaltney,  G. Hawkins,  A. Heyden,
 S. Hirata,  G. Kedziora,  F. J. Keil,  C. Kelley,  Jihan Kim,  R. A. King,
 R. Z. Khaliullin,  P. P. Korambath,  W. Kurlancheek,  A. M. Lee,  M. S. Lee,
 S. V. Levchenko,  Ching Yeh Lin,  D. Liotard,  R. C. Lochan,  I. Lotan,
 P. E. Maslen,  N. Nair,  D. P. O'Neill,  D. Neuhauser,  E. Neuscamman,
 C. M. Oana,  R. Olson,  B. Peters,  R. Peverati,  P. A. Pieniazek,
 Y. M. Rhee,  J. Ritchie,  M. A. Rohrdanz,  E. Rosta,  N. J. Russ,
 H. F. Schaefer III,  N. E. Schultz,  N. Shenvi,  A. C. Simmonett,  A. Sodt,
 D. Stuck,  K. S. Thanthiriwatte,  V. Vanovschi,  Tao Wang,  A. Warshel,
 C. F. Williams,  Q. Wu,  X. Xu,  W. Zhang

 Please cite Q-Chem as follows:
 Y. Shao et al., Mol. Phys. 113, 184-215 (2015)
 DOI: 10.1080/00268976.2014.952696

 Q-Chem 5.2.2 for Intel X86 EM64T Linux

 Parts of Q-Chem use Armadillo 9.800.1 (Horizon Scraper).
 http://arma.sourceforge.net/

 Q-Chem begins on Thu Apr  8 15:23:21 2021

Host: node023
0

     Scratch files written to /home/ymao90/scratch/probe_b3lyp_dibutylether20210408150847//
The previous job contains 0 fragments, simply inherited here
Symmetry turned off for PCM/SM12/SMD calculation

Checking the input file for inconsistencies... 	...done.

--------------------------------------------------------------
User input:
--------------------------------------------------------------

$molecule
read
$end

$rem
JOBTYPE  FREQ
METHOD  B3LYP
BASIS  6-31+G(D)
SYMMETRY  FALSE
SYM_IGNORE  FALSE
MEM_TOTAL  8000
MEM_STATIC  2000
MAX_SUB_FILE_NUM  16000
BASIS_LIN_DEP_THRESH  6
THRESH  14
SCF_CONVERGENCE  8
GEN_SCFMAN  TRUE
SCF_GUESS  READ
FD_MAT_VEC_PROD  FALSE
XC_GRID  000099000590
NL_GRID  1
MAX_SCF_CYCLES  200
ISOTOPES TRUE
SOLVENT_METHOD  PCM
$end

$isotopes
1 0
1
 21 2.0141018
$end

$PCM
THEORY                     CPCM
METHOD                     SWIG
SOLVER                     INVERSION
HPOINTS                    302
HEAVYPOINTS                302
$END

$SOLVENT
DIELECTRIC                 3.05
$END
--------------------------------------------------------------

             Standard Nuclear Orientation (Angstroms)
    I     Atom           X                Y                Z
 ----------------------------------------------------------------
    1      C       0.4851450629    11.8632753963    20.4285829186
    2      C       0.4279421887    10.4400714056    19.8440793986
    3      C       1.5142394718     9.5396812438    20.4584654699
    4      C       1.4280155086     9.5241892650    21.9938489281
    5      C       1.4834915317    10.9440703346    22.5793688687
    6      C       0.3995387002    11.8430419396    21.9638820661
    7      H       1.4168030875     8.5237033451    20.0555090404
    8      H      -0.5556259773    10.0079560187    20.0545904553
    9      H       1.4305297584    12.3360833540    20.1200262223
   10      H      -0.3284317683    12.4643435755    20.0034411640
   11      H       0.4858227609     9.0435548765    22.2970253280
   12      H       2.2397006250     8.9090367496    22.4033613772
   13      H       1.3697682275    10.9074902375    23.6707561842
   14      H       2.4739475246    11.3808394947    22.3793624116
   15      H      -0.5921690883    11.4735211734    22.2650102721
   16      H       0.4842020885    12.8660833782    22.3526976480
   17      H       2.5031018725     9.9147073758    20.1512587209
   18      N       0.5439363930    10.4687002307    18.3831297658
   19      H       1.4172323703    10.7962928018    17.9839318236
   20      C      -0.4282901521    10.1087207753    17.5172798517
   21      H      -0.1174094941    10.2165162941    16.4634989457
   22      O      -1.5514906922     9.6981207343    17.8208931393
 ----------------------------------------------------------------

   11    -404.5964467817      6.92e-09  Convergence criterion met
 Total energy in the final basis set =     -404.5964467817

                    Orbital Energies (a.u.)
 --------------------------------------------------------------

 Alpha MOs
 -- Occupied --
-19.1312 -14.3724 -10.2928 -10.2276 -10.1870 -10.1863 -10.1841 -10.1838
-10.1822  -1.0383  -0.9335  -0.8278  -0.7455  -0.7449  -0.6391  -0.6150
 -0.5945  -0.5666  -0.5282  -0.4852  -0.4626  -0.4454  -0.4405  -0.4198
 -0.4178  -0.3986  -0.3822  -0.3754  -0.3508  -0.3475  -0.3257  -0.3159
 -0.3126  -0.2671  -0.2605

          Ground-State Mulliken Net Atomic Charges

     Atom                 Charge (a.u.)
  ----------------------------------------
      1 C                    -0.261904
      2 C                    -0.461806
      3 C                    -0.280691
      4 C                    -0.442405
      5 C                    -0.383824
      6 C                    -0.444924
      7 H                     0.212112
      8 H                     0.234458
      9 H                     0.205954
     10 H                     0.211838
     11 H                     0.207408
     12 H                     0.201576
     13 H                     0.198885
     14 H                     0.199883
     15 H                     0.207392
     16 H                     0.201597
     17 H                     0.205743
     18 N                    -0.384322
     19 H                     0.431339
     20 C                     0.341211
     21 H                     0.169328
     22 O                    -0.568847
  ----------------------------------------
  Sum of atomic charges =     0.000000

                    Cartesian Multipole Moments
 -----------------------------------------------------------------
    Charge (ESU x 10^10)
                -0.0000
    Dipole Moment (Debye)
         X       4.8276      Y       1.8046      Z       1.1200
       Tot       5.2742
    Quadrupole Moments (Debye-Ang)
        XX     -60.9388     XY      48.1480     YY     -20.3966
        XZ      86.9026     YZ      44.0292     ZZ     -10.1622

 Frequency:       -12.15                  96.78                 187.46
 Force Cnst:      0.0004                 0.0203                 0.0451
 Red. Mass:       4.7888                 3.6799                 2.1761
 IR Intens:       11.364                  7.736                 51.402
 Frequency:       209.45                 227.69                 333.92
 Force Cnst:      0.0926                 0.0545                 0.1241
 Red. Mass:       3.5841                 1.7849                 1.8882
 IR Intens:       10.364                  0.129                  0.122
 Frequency:       397.88                 405.48                 449.14
 Force Cnst:      0.3365                 0.3694                 0.2669
 Red. Mass:       3.6072                 3.8138                 2.2455
 IR Intens:       12.515                 27.844                  0.580
 Frequency:       462.26                 532.64                 577.06
 Force Cnst:      0.4600                 0.2696                 0.2251
 Red. Mass:       3.6537                 1.6132                 1.1474
 IR Intens:        8.895                  2.042                 77.816
 Frequency:       745.23                 799.56                 822.40
 Force Cnst:      1.3650                 0.5427                 0.9779
 Red. Mass:       4.1715                 1.4408                 2.4539
 IR Intens:        5.004                  0.147                  0.740
 Frequency:       850.30                 902.91                 917.59
 Force Cnst:      0.8531                 0.8934                 0.9704
 Red. Mass:       2.0027                 1.8600                 1.9562
 IR Intens:        1.989                 12.892                  0.856
 Frequency:       936.24                 965.50                1023.18
 Force Cnst:      0.7733                 1.2931                 0.9840
 Red. Mass:       1.4973                 2.3544                 1.5954
 IR Intens:        0.506                  6.065                  0.053
 Frequency:      1037.19                1065.48                1071.54
 Force Cnst:      1.1253                 0.9350                 2.4699
 Red. Mass:       1.7755                 1.3978                 3.6511
 IR Intens:        2.281                  2.151                 15.284
 Frequency:      1093.44                1103.67                1175.41
 Force Cnst:      0.8175                 1.7966                 1.8700
 Red. Mass:       1.1605                 2.5034                 2.2973
 IR Intens:        0.027                  1.807                  3.399
 Frequency:      1212.69                1233.10                1277.29
 Force Cnst:      1.2782                 1.6380                 1.2750
 Red. Mass:       1.4752                 1.8283                 1.3265
 IR Intens:        1.315                 77.889                 15.645
 Frequency:      1290.70                1296.76                1343.68
 Force Cnst:      1.2394                 1.3454                 1.3652
 Red. Mass:       1.2628                 1.3579                 1.2833
 IR Intens:        2.769                  8.719                  2.700
 Frequency:      1346.35                1376.26                1384.53
 Force Cnst:      1.3173                 1.5456                 1.5130
 Red. Mass:       1.2335                 1.3850                 1.3396
 IR Intens:       14.157                  1.167                  0.660
 Frequency:      1387.13                1389.38                1405.95
 Force Cnst:      1.7080                 1.6874                 1.7243
 Red. Mass:       1.5066                 1.4836                 1.4806
 IR Intens:        0.063                  9.415                  1.206
 Frequency:      1428.80                1497.33                1500.46
 Force Cnst:      1.4825                 1.4367                 1.4480
 Red. Mass:       1.2325                 1.0876                 1.0916
 IR Intens:       35.959                  0.155                  4.278
 Frequency:      1503.17                1504.91                1517.50
 Force Cnst:      1.4612                 1.4514                 1.4942
 Red. Mass:       1.0976                 1.0877                 1.1013
 IR Intens:        6.877                 12.413                  0.604
 Frequency:      1555.70                1721.79                3009.93
 Force Cnst:      2.6317                10.8769                 5.7020
 Red. Mass:       1.8456                 6.2272                 1.0682
 IR Intens:      272.894                642.213                 22.923
 Frequency:      3011.95                3012.84                3014.86
 Force Cnst:      5.7962                 5.7104                 5.7385
 Red. Mass:       1.0844                 1.0677                 1.0715
 IR Intens:       85.896                 45.847                 70.027
 Frequency:      3020.46                3022.13                3063.42
 Force Cnst:      5.7141                 5.7108                 6.0443
 Red. Mass:       1.0630                 1.0613                 1.0932
 IR Intens:       16.914                 91.829                103.647
 Frequency:      3064.72                3068.59                3070.39
 Force Cnst:      6.0746                 6.0971                 6.0816
 Red. Mass:       1.0977                 1.0990                 1.0949
 IR Intens:       95.759                 74.093                 61.799
 Frequency:      3072.07                3098.11                3584.91
 Force Cnst:      6.1016                 6.1526                 8.1638
 Red. Mass:       1.0973                 1.0880                 1.0782
 IR Intens:       48.524                 39.843                 39.684
 Frequency:       -12.13                  96.12                 167.68
 Force Cnst:      0.0004                 0.0201                 0.0457
 Red. Mass:       4.7973                 3.7005                 2.7611
 IR Intens:       11.345                  7.530                 41.277
 Frequency:       209.17                 227.68                 333.73
 Force Cnst:      0.0931                 0.0545                 0.1245
 Red. Mass:       3.6121                 1.7843                 1.8976
 IR Intens:        9.628                  0.082                  0.106
 Frequency:       392.77                 399.56                 448.96
 Force Cnst:      0.3385                 0.3854                 0.2691
 Red. Mass:       3.7246                 4.0976                 2.2657
 IR Intens:       11.502                 18.774                  0.616
 Frequency:       458.78                 530.06                 566.04
 Force Cnst:      0.4296                 0.2671                 0.2145
 Red. Mass:       3.4645                 1.6136                 1.1361
 IR Intens:        2.570                  1.676                 97.715
 Frequency:       735.82                 799.55                 820.27
 Force Cnst:      1.3163                 0.5427                 0.9637
 Red. Mass:       4.1264                 1.4408                 2.4310
 IR Intens:        4.765                  0.145                  0.538
 Frequency:       849.24                 860.98                 902.96
 Force Cnst:      0.8658                 1.7661                 0.8901
 Red. Mass:       2.0376                 4.0437                 1.8528
 IR Intens:        2.340                  0.588                 12.756
 Frequency:       915.17                 936.38                 942.19
 Force Cnst:      1.0108                 0.7754                 1.1781
 Red. Mass:       2.0484                 1.5010                 2.2524
 IR Intens:        1.547                  0.578                  5.155
 Frequency:      1021.68                1037.63                1064.84
 Force Cnst:      1.4138                 1.1468                 0.9421
 Red. Mass:       2.2989                 1.8078                 1.4102
 IR Intens:        5.234                  1.565                  1.894
 Frequency:      1093.37                1103.24                1120.28
 Force Cnst:      0.8100                 1.8323                 2.4451
 Red. Mass:       1.1500                 2.5551                 3.3067
 IR Intens:        0.025                  1.616                 21.353
 Frequency:      1179.97                1212.25                1237.45
 Force Cnst:      2.0771                 1.2776                 1.8978
 Red. Mass:       2.5320                 1.4756                 2.1035
 IR Intens:       14.767                  1.034                 58.572
 Frequency:      1276.85                1290.69                1295.90
 Force Cnst:      1.2713                 1.2395                 1.3323
 Red. Mass:       1.3235                 1.2629                 1.3465
 IR Intens:       13.035                  2.734                  5.813
 Frequency:      1343.38                1345.50                1376.23
 Force Cnst:      1.3482                 1.3173                 1.5454
 Red. Mass:       1.2679                 1.2350                 1.3849
 IR Intens:        4.447                  9.870                  1.133
 Frequency:      1384.46                1387.11                1389.36
 Force Cnst:      1.5125                 1.7075                 1.6870
 Red. Mass:       1.3393                 1.5062                 1.4833
 IR Intens:        0.608                  0.052                  9.438
 Frequency:      1405.40                1497.33                1500.46
 Force Cnst:      1.7129                 1.4367                 1.4479
 Red. Mass:       1.4719                 1.0876                 1.0915
 IR Intens:        0.926                  0.157                  4.402
 Frequency:      1503.16                1504.90                1517.46
 Force Cnst:      1.4611                 1.4514                 1.4947
 Red. Mass:       1.0976                 1.0878                 1.1017
 IR Intens:        6.856                 12.219                  0.865
 Frequency:      1549.83                1700.02                2226.07
 Force Cnst:      2.4780                14.8527                 7.0143
 Red. Mass:       1.7510                 8.7226                 2.4025
 IR Intens:      227.410                709.860                102.217
 Frequency:      3009.93                3012.82                3014.71
 Force Cnst:      5.7017                 5.7080                 5.7344
 Red. Mass:       1.0682                 1.0673                 1.0709
 IR Intens:       24.088                 31.015                 44.386
 Frequency:      3020.46                3022.13                3063.42
 Force Cnst:      5.7141                 5.7108                 6.0443
 Red. Mass:       1.0630                 1.0613                 1.0932
 IR Intens:       16.903                 92.334                105.246
 Frequency:      3064.72                3068.59                3070.39
 Force Cnst:      6.0746                 6.0973                 6.0814
 Red. Mass:       1.0977                 1.0990                 1.0949
 IR Intens:       95.762                 73.793                 61.092
 Frequency:      3072.07                3098.07                3584.86
 Force Cnst:      6.1016                 6.1525                 8.1634
 Red. Mass:       1.0973                 1.0880                 1.0781
 IR Intens:       48.458                 41.786                 40.135

 STANDARD THERMODYNAMIC QUANTITIES AT   298.18 K  AND     1.00 ATM

   This Molecule has  1 Imaginary Frequencies
   Zero point vibrational energy:      121.885 kcal/mol

   Atom    1 Element C  Has Mass   12.00000
   Atom    2 Element C  Has Mass   12.00000
   Atom    3 Element C  Has Mass   12.00000
   Atom    4 Element C  Has Mass   12.00000
   Atom    5 Element C  Has Mass   12.00000
   Atom    6 Element C  Has Mass   12.00000
   Atom    7 Element H  Has Mass    1.00783
   Atom    8 Element H  Has Mass    1.00783
   Atom    9 Element H  Has Mass    1.00783
   Atom   10 Element H  Has Mass    1.00783
   Atom   11 Element H  Has Mass    1.00783
   Atom   12 Element H  Has Mass    1.00783
   Atom   13 Element H  Has Mass    1.00783
   Atom   14 Element H  Has Mass    1.00783
   Atom   15 Element H  Has Mass    1.00783
   Atom   16 Element H  Has Mass    1.00783
   Atom   17 Element H  Has Mass    1.00783
   Atom   18 Element N  Has Mass   14.00307
   Atom   19 Element H  Has Mass    1.00783
   Atom   20 Element C  Has Mass   12.00000
   Atom   21 Element H  Has Mass    2.01410
   Atom   22 Element O  Has Mass   15.99491
   Molecular Mass:   128.106042 amu
   Principal axes and moments of inertia in amu*Bohr^2:
                             1           2           3
    Eigenvalues --      538.87161  2026.10006  2226.32642
          X               0.39119    -0.42948     0.81395
          Y               0.16032     0.90271     0.39926
          Z               0.90624     0.02569    -0.42199
   Rotational Symmetry Number is   1
   The Molecule is an Asymmetric Top
   Translational Enthalpy:        0.889 kcal/mol
   Rotational Enthalpy:           0.889 kcal/mol
   Vibrational Enthalpy:        125.177 kcal/mol
   gas constant (RT):             0.593 kcal/mol
   Translational Entropy:        40.457  cal/mol.K
   Rotational Entropy:           29.276  cal/mol.K
   Vibrational Entropy:          18.154  cal/mol.K

   Total Enthalpy:              127.548 kcal/mol
   Total Entropy:                87.886  cal/mol.K

 Total job time:  1212.78s(wall), 17149.80s(cpu)
        *  Thank you very much for using Q-Chem.  Have a nice day.  *
