 Q-Chem 5.2 (devel), Q-Chem, Inc., Pleasanton, CA (2019)
 Q-Chem 5.2.2 for Intel X86 EM64T Linux

User input:
--------------------------------------------------------------
$molecule
0 1
C    0.58000    11.83000   20.41000
C    0.42000    10.41000   19.83000
C    1.53000    9.53000    20.44000
C    1.44000    9.53000    21.98000
C    1.37000    10.92000   22.65000
C    0.42000    11.90000   21.94000
H    1.49000    8.50000    20.05000
H    -0.52000   10.00000   20.20000
H    1.40000    12.47000   20.08000
H    -0.28000   12.43000   20.08000
H    0.54000    9.00000    22.28000
H    2.32000    8.99000    22.34000
H    1.27000    10.83000   23.73000
H    2.37000    11.32000   22.50000
H    -0.63000   11.62000   22.11000
H    0.56000    12.91000   22.33000
H    2.51000    9.84000    20.07000
N    0.54000    10.41000   18.38000
H    1.39000    10.78000   17.99000
C    -0.47000   10.09000   17.50000
H    -0.16000   10.30000   16.46000
O    -1.56000   9.66000    17.84000
$end

$rem
JOBTYPE  OPT
METHOD  B3LYP
BASIS  6-31+G(D)
SYMMETRY  FALSE
SYM_IGNORE  FALSE
MEM_TOTAL  8000
MEM_STATIC  2000
MAX_SUB_FILE_NUM  16000
BASIS_LIN_DEP_THRESH  6
THRESH  14
SCF_CONVERGENCE  8
GEN_SCFMAN  TRUE
SCF_GUESS  SAD
FD_MAT_VEC_PROD  FALSE
XC_GRID  000099000590
NL_GRID  1
MAX_SCF_CYCLES  200
GEOM_OPT_TOL_GRADIENT  100
GEOM_OPT_TOL_DISPLACEMENT  100
GEOM_OPT_TOL_ENERGY  10
SOLVENT_METHOD       PCM
$end

$PCM
THEORY                     CPCM
METHOD                     SWIG
SOLVER                     INVERSION
HPOINTS                    302
HEAVYPOINTS                302
$END

$SOLVENT
DIELECTRIC                 8.82
$END

--------------------------------------------------------------

   13    -404.5809822089      6.13e-09  Convergence criterion met
 Total energy in the final basis set =     -404.5809822089
   12    -404.5917024138      2.72e-09  Convergence criterion met
 Total energy in the final basis set =     -404.5917024138
   12    -404.5974290597      2.75e-09  Convergence criterion met
 Total energy in the final basis set =     -404.5974290597
   12    -404.5992799256      2.89e-09  Convergence criterion met
 Total energy in the final basis set =     -404.5992799256
   12    -404.6001246538      2.97e-09  Convergence criterion met
 Total energy in the final basis set =     -404.6001246538
   11    -404.6002631800      9.73e-09  Convergence criterion met
 Total energy in the final basis set =     -404.6002631800
   12    -404.6002742602      2.99e-09  Convergence criterion met
 Total energy in the final basis set =     -404.6002742602
   12    -404.6002769219      2.99e-09  Convergence criterion met
 Total energy in the final basis set =     -404.6002769219
   12    -404.6002777264      2.99e-09  Convergence criterion met
 Total energy in the final basis set =     -404.6002777264
   12    -404.6002778283      2.99e-09  Convergence criterion met
 Total energy in the final basis set =     -404.6002778283
   12    -404.6002778359      2.99e-09  Convergence criterion met
 Total energy in the final basis set =     -404.6002778359
 Final energy is   -404.600277835887
 **  OPTIMIZATION CONVERGED  **
 Total job time:  932.39s(wall), 13061.25s(cpu)
        *  Thank you very much for using Q-Chem.  Have a nice day.  *

User input: 2 of 2

                  Welcome to Q-Chem
     A Quantum Leap Into The Future Of Chemistry

 Q-Chem 5.2 (devel), Q-Chem, Inc., Pleasanton, CA (2019)

 Yihan Shao,  Zhengting Gan,  E. Epifanovsky,  A. T. B. Gilbert,  M. Wormit,
 J. Kussmann,  A. W. Lange,  A. Behn,  Jia Deng,  Xintian Feng,  D. Ghosh,
 M. Goldey,  P. R. Horn,  L. D. Jacobson,  I. Kaliman,  T. Kus,  A. Landau,
 Jie Liu,  E. I. Proynov,  R. M. Richard,  R. P. Steele,  E. J. Sundstrom,
 H. L. Woodcock III,  P. M. Zimmerman,  D. Zuev,  B. Alam,  B. Albrecht,
 E. Alguire,  S. A. Baeppler,  D. Barton,  Z. Benda,  Y. A. Bernard,
 E. J. Berquist,  K. B. Bravaya,  H. Burton,  K. Carter-Fenk,  D. Casanova,
 Chun-Min Chang,  Yunqing Chen,  A. Chien,  K. D. Closser,  M. P. Coons,
 S. Coriani,  S. Dasgupta,  A. L. Dempwolff,  M. Diedenhofen,  Hainam Do,
 R. G. Edgar,  Po-Tung Fang,  S. Faraji,  S. Fatehi,  Qingguo Feng,
 J. Fosso-Tande,  J. Gayvert,  Qinghui Ge,  A. Ghysels,  G. Gidofalvi,
 J. Gomes,  J. Gonthier,  A. Gunina,  D. Hait,  M. W. D. Hanson-Heine,
 P. H. P. Harbach,  A. W. Hauser,  M. F. Herbst,  J. E. Herr,
 E. G. Hohenstein,  Z. C. Holden,  Kerwin Hui,  B. C. Huynh,  T.-C. Jagau,
 Hyunjun Ji,  B. Kaduk,  K. Khistyaev,  Jaehoon Kim,  P. Klunzinger,  K. Koh,
 D. Kosenkov,  L. Koulias,  T. Kowalczyk,  C. M. Krauter,  A. Kunitsa,
 Ka Un Lao,  A. Laurent,  K. V. Lawler,  Joonho Lee,  D. Lefrancois,
 S. Lehtola,  D. S. Levine,  Yi-Pei Li,  You-Sheng Lin,  Fenglai Liu,
 Kuan-Yu Liu,  E. Livshits,  M. Loipersberger,  A. Luenser,  P. Manohar,
 E. Mansoor,  S. F. Manzer,  Shan-Ping Mao,  Yuezhi Mao,  N. Mardirossian,
 A. V. Marenich,  T. Markovich,  L. A. Martinez-Martinez,  S. A. Maurer,
 N. J. Mayhall,  S. C. McKenzie,  J.-M. Mewes,  P. Morgante,  A. F. Morrison,
 J. W. Mullinax,  K. Nanda,  T. S. Nguyen-Beck,  R. Olivares-Amaya,
 J. A. Parkhill,  S. K. Paul,  F. Pavosevic,  Zheng Pei,  T. M. Perrine,
 F. Plasser,  P. Pokhilko,  S. Prager,  A. Prociuk,  E. Ramos,  B. Rana,
 D. R. Rehn,  F. Rob,  M. Scheurer,  M. Schneider,  N. Sergueev,
 S. M. Sharada,  S. Sharma,  D. W. Small,  T. Stauch,  C. J. Stein,
 T. Stein,  Yu-Chuan Su,  S. P. Veccham,  Zhen Tao,  A. J. W. Thom,
 A. Tkatchenko,  T. Tsuchimochi,  N. M. Tubman,  L. Vogt,  M. L. Vidal,
 O. Vydrov,  M. A. Watson,  J. Wenzel,  M. de Wergifosse,  T. A. Wesolowski,
 A. White,  J. Witte,  A. Yamada,  Jun Yang,  K. Yao,  S. Yeganeh,
 S. R. Yost,  Zhi-Qiang You,  A. Zech,  Igor Ying Zhang,  Xing Zhang,
 Yan Zhao,  Ying Zhu,  B. R. Brooks,  G. K. L. Chan,  C. J. Cramer,
 M. S. Gordon,  W. J. Hehre,  A. Klamt,  M. W. Schmidt,  C. D. Sherrill,
 D. G. Truhlar,  A. Aspuru-Guzik,  R. Baer,  A. T. Bell,  N. A. Besley,
 Jeng-Da Chai,  A. E. DePrince, III,  R. A. DiStasio Jr.,  A. Dreuw,
 B. D. Dunietz,  T. R. Furlani,  Chao-Ping Hsu,  Yousung Jung,  Jing Kong,
 D. S. Lambrecht,  WanZhen Liang,  C. Ochsenfeld,  V. A. Rassolov,
 L. V. Slipchenko,  J. E. Subotnik,  T. Van Voorhis,  J. M. Herbert,
 A. I. Krylov,  P. M. W. Gill,  M. Head-Gordon

 Contributors to earlier versions of Q-Chem not listed above:
 R. D. Adamson,  B. Austin,  J. Baker,  G. J. O. Beran,  K. Brandhorst,
 S. T. Brown,  E. F. C. Byrd,  A. K. Chakraborty,  C.-L. Cheng,
 Siu Hung Chien,  D. M. Chipman,  D. L. Crittenden,  H. Dachsel,
 R. J. Doerksen,  A. D. Dutoi,  L. Fusti-Molnar,  W. A. Goddard III,
 A. Golubeva-Zadorozhnaya,  S. R. Gwaltney,  G. Hawkins,  A. Heyden,
 S. Hirata,  G. Kedziora,  F. J. Keil,  C. Kelley,  Jihan Kim,  R. A. King,
 R. Z. Khaliullin,  P. P. Korambath,  W. Kurlancheek,  A. M. Lee,  M. S. Lee,
 S. V. Levchenko,  Ching Yeh Lin,  D. Liotard,  R. C. Lochan,  I. Lotan,
 P. E. Maslen,  N. Nair,  D. P. O'Neill,  D. Neuhauser,  E. Neuscamman,
 C. M. Oana,  R. Olson,  B. Peters,  R. Peverati,  P. A. Pieniazek,
 Y. M. Rhee,  J. Ritchie,  M. A. Rohrdanz,  E. Rosta,  N. J. Russ,
 H. F. Schaefer III,  N. E. Schultz,  N. Shenvi,  A. C. Simmonett,  A. Sodt,
 D. Stuck,  K. S. Thanthiriwatte,  V. Vanovschi,  Tao Wang,  A. Warshel,
 C. F. Williams,  Q. Wu,  X. Xu,  W. Zhang

 Please cite Q-Chem as follows:
 Y. Shao et al., Mol. Phys. 113, 184-215 (2015)
 DOI: 10.1080/00268976.2014.952696

 Q-Chem 5.2.2 for Intel X86 EM64T Linux

 Parts of Q-Chem use Armadillo 9.800.1 (Horizon Scraper).
 http://arma.sourceforge.net/

 Q-Chem begins on Thu Apr  8 15:24:21 2021

Host: node023
0

     Scratch files written to /home/ymao90/scratch/probe_b3lyp_DCM20210408150847//
The previous job contains 0 fragments, simply inherited here
Symmetry turned off for PCM/SM12/SMD calculation

Checking the input file for inconsistencies... 	...done.

--------------------------------------------------------------
User input:
--------------------------------------------------------------

$molecule
read
$end

$rem
JOBTYPE  FREQ
METHOD  B3LYP
BASIS  6-31+G(D)
SYMMETRY  FALSE
SYM_IGNORE  FALSE
MEM_TOTAL  8000
MEM_STATIC  2000
MAX_SUB_FILE_NUM  16000
BASIS_LIN_DEP_THRESH  6
THRESH  14
SCF_CONVERGENCE  8
GEN_SCFMAN  TRUE
SCF_GUESS  READ
FD_MAT_VEC_PROD  FALSE
XC_GRID  000099000590
NL_GRID  1
MAX_SCF_CYCLES  200
ISOTOPES TRUE
SOLVENT_METHOD  PCM
$end

$isotopes
1 0
1
 21 2.0141018
$end

$PCM
THEORY                     CPCM
METHOD                     SWIG
SOLVER                     INVERSION
HPOINTS                    302
HEAVYPOINTS                302
$END

$SOLVENT
DIELECTRIC                 8.82
$END
--------------------------------------------------------------

             Standard Nuclear Orientation (Angstroms)
    I     Atom           X                Y                Z
 ----------------------------------------------------------------
    1      C       0.4830575836    11.8632054343    20.4295270042
    2      C       0.4232735555    10.4395127931    19.8465413120
    3      C       1.5109332233     9.5389768819    20.4583232319
    4      C       1.4278514014     9.5243458757    21.9938668754
    5      C       1.4859694907    10.9445992702    22.5782472407
    6      C       0.4007090710    11.8435481241    21.9650110005
    7      H       1.4120832475     8.5226016690    20.0564357626
    8      H      -0.5598122507    10.0078708034    20.0600295592
    9      H       1.4282513254    12.3334864242    20.1179237191
   10      H      -0.3311847971    12.4649671629    20.0062830921
   11      H       0.4858350418     9.0448736106    22.2996965849
   12      H       2.2405290847     8.9090875997    22.4012609416
   13      H       1.3748086626    10.9087520326    23.6699840324
   14      H       2.4758752971    11.3805555546    22.3744233695
   15      H      -0.5903211919    11.4741484169    22.2688018761
   16      H       0.4871164558    12.8669486704    22.3525240403
   17      H       2.4980700849     9.9146225699    20.1478253067
   18      N       0.5403424842    10.4694785259    18.3850188195
   19      H       1.4147048466    10.8004135301    17.9894532312
   20      C      -0.4217301765    10.1083186644    17.5148876430
   21      H      -0.1067760773    10.2189293944    16.4638513279
   22      O      -1.5495863625     9.6907569919    17.8100840293
 ----------------------------------------------------------------

   12    -404.6002778354      2.99e-09  Convergence criterion met
 Total energy in the final basis set =     -404.6002778354

                    Orbital Energies (a.u.)
 --------------------------------------------------------------

 Alpha MOs
 -- Occupied --
-19.1336 -14.3719 -10.2935 -10.2260 -10.1839 -10.1834 -10.1810 -10.1808
-10.1790  -1.0387  -0.9332  -0.8253  -0.7435  -0.7420  -0.6375  -0.6122
 -0.5926  -0.5641  -0.5269  -0.4841  -0.4613  -0.4428  -0.4382  -0.4193
 -0.4180  -0.3963  -0.3795  -0.3742  -0.3483  -0.3444  -0.3228  -0.3130
 -0.3102  -0.2697  -0.2607

          Ground-State Mulliken Net Atomic Charges

     Atom                 Charge (a.u.)
  ----------------------------------------
      1 C                    -0.268851
      2 C                    -0.440059
      3 C                    -0.285758
      4 C                    -0.449769
      5 C                    -0.382052
      6 C                    -0.452270
      7 H                     0.211517
      8 H                     0.229625
      9 H                     0.211653
     10 H                     0.210846
     11 H                     0.207626
     12 H                     0.202746
     13 H                     0.199247
     14 H                     0.202016
     15 H                     0.207539
     16 H                     0.202731
     17 H                     0.211651
     18 N                    -0.384322
     19 H                     0.445960
     20 C                     0.344561
     21 H                     0.179903
     22 O                    -0.604539
  ----------------------------------------
  Sum of atomic charges =     0.000000

                    Cartesian Multipole Moments
 -----------------------------------------------------------------
    Charge (ESU x 10^10)
                -0.0000
    Dipole Moment (Debye)
         X       5.2905      Y       1.9981      Z       1.1679
       Tot       5.7745
    Quadrupole Moments (Debye-Ang)
        XX     -61.0351     XY      52.8508     YY     -16.4535
        XZ      95.3925     YZ      48.0656     ZZ      -8.3098

 Frequency:       -12.80                  94.74                 191.03
 Force Cnst:      0.0005                 0.0197                 0.0476
 Red. Mass:       4.7905                 3.7238                 2.2158
 IR Intens:       13.917                  9.158                 56.672
 Frequency:       208.34                 227.43                 333.65
 Force Cnst:      0.0905                 0.0544                 0.1237
 Red. Mass:       3.5402                 1.7855                 1.8865
 IR Intens:       11.607                  0.168                  0.124
 Frequency:       397.95                 408.23                 449.41
 Force Cnst:      0.3348                 0.3665                 0.2678
 Red. Mass:       3.5878                 3.7326                 2.2503
 IR Intens:       12.206                 30.900                  0.675
 Frequency:       463.72                 531.87                 595.12
 Force Cnst:      0.4692                 0.2684                 0.2394
 Red. Mass:       3.7036                 1.6105                 1.1473
 IR Intens:       10.902                  2.226                 96.000
 Frequency:       744.59                 799.26                 821.64
 Force Cnst:      1.3702                 0.5421                 0.9715
 Red. Mass:       4.1947                 1.4402                 2.4424
 IR Intens:        5.670                  0.160                  0.827
 Frequency:       849.85                 902.05                 916.79
 Force Cnst:      0.8496                 0.8831                 0.9700
 Red. Mass:       1.9966                 1.8420                 1.9588
 IR Intens:        2.609                 15.647                  1.105
 Frequency:       935.79                 964.55                1026.29
 Force Cnst:      0.7762                 1.2883                 0.9870
 Red. Mass:       1.5044                 2.3503                 1.5905
 IR Intens:        0.528                  7.065                  0.030
 Frequency:      1035.93                1063.89                1070.16
 Force Cnst:      1.1175                 0.9293                 2.4845
 Red. Mass:       1.7674                 1.3935                 3.6821
 IR Intens:        2.615                  2.492                 20.045
 Frequency:      1091.96                1103.55                1174.67
 Force Cnst:      0.8107                 1.7878                 1.8872
 Red. Mass:       1.1540                 2.4917                 2.3214
 IR Intens:        0.011                  1.976                  5.685
 Frequency:      1210.80                1240.43                1275.41
 Force Cnst:      1.2790                 1.6035                 1.2653
 Red. Mass:       1.4808                 1.7688                 1.3202
 IR Intens:        1.466                 65.924                 16.309
 Frequency:      1288.68                1296.78                1342.54
 Force Cnst:      1.2363                 1.3771                 1.3596
 Red. Mass:       1.2635                 1.3899                 1.2803
 IR Intens:        2.733                 10.807                  2.847
 Frequency:      1344.69                1375.06                1383.32
 Force Cnst:      1.3142                 1.5431                 1.5372
 Red. Mass:       1.2336                 1.3852                 1.3635
 IR Intens:       12.826                  1.364                  0.597
 Frequency:      1385.13                1387.63                1404.88
 Force Cnst:      1.6851                 1.6882                 1.7205
 Red. Mass:       1.4907                 1.4881                 1.4795
 IR Intens:        0.031                 10.862                  0.927
 Frequency:      1427.26                1494.96                1497.44
 Force Cnst:      1.4977                 1.4327                 1.4386
 Red. Mass:       1.2479                 1.0880                 1.0889
 IR Intens:       59.817                  0.114                  5.172
 Frequency:      1500.46                1501.43                1513.75
 Force Cnst:      1.4569                 1.4494                 1.4864
 Red. Mass:       1.0983                 1.0912                 1.1010
 IR Intens:        7.500                 11.444                  0.491
 Frequency:      1559.65                1700.67                3013.75
 Force Cnst:      2.6782                 9.6858                 5.7165
 Red. Mass:       1.8687                 5.6839                 1.0682
 IR Intens:      311.174                753.501                 35.549
 Frequency:      3013.93                3017.98                3019.43
 Force Cnst:      5.7176                 5.7369                 5.7059
 Red. Mass:       1.0683                 1.0690                 1.0622
 IR Intens:       37.283                 11.515                  8.427
 Frequency:      3020.86                3027.89                3062.50
 Force Cnst:      5.7012                 5.8650                 6.0461
 Red. Mass:       1.0604                 1.0858                 1.0941
 IR Intens:      143.302                125.201                114.111
 Frequency:      3063.84                3067.51                3069.08
 Force Cnst:      6.0676                 6.0845                 6.0849
 Red. Mass:       1.0971                 1.0975                 1.0965
 IR Intens:      119.048                 77.292                 88.022
 Frequency:      3070.77                3097.36                3581.14
 Force Cnst:      6.1091                 6.1494                 8.1484
 Red. Mass:       1.0996                 1.0879                 1.0784
 IR Intens:       48.337                 53.448                 57.946
 Frequency:       -12.78                  94.07                 171.00
 Force Cnst:      0.0005                 0.0195                 0.0481
 Red. Mass:       4.7996                 3.7443                 2.7946
 IR Intens:       13.892                  8.908                 45.933
 Frequency:       208.02                 227.42                 333.45
 Force Cnst:      0.0913                 0.0544                 0.1242
 Red. Mass:       3.5815                 1.7847                 1.8962
 IR Intens:       10.484                  0.102                  0.108
 Frequency:       393.01                 401.65                 449.23
 Force Cnst:      0.3341                 0.3860                 0.2699
 Red. Mass:       3.6708                 4.0608                 2.2700
 IR Intens:       11.540                 21.007                  0.717
 Frequency:       459.50                 529.34                 585.90
 Force Cnst:      0.4358                 0.2659                 0.2297
 Red. Mass:       3.5028                 1.6106                 1.1355
 IR Intens:        3.127                  1.825                117.033
 Frequency:       735.16                 799.26                 819.57
 Force Cnst:      1.3220                 0.5420                 0.9578
 Red. Mass:       4.1516                 1.4402                 2.4203
 IR Intens:        5.418                  0.158                  0.600
 Frequency:       848.82                 862.64                 902.10
 Force Cnst:      0.8618                 1.7688                 0.8800
 Red. Mass:       2.0302                 4.0344                 1.8355
 IR Intens:        3.066                  0.862                 15.455
 Frequency:       914.44                 935.93                 942.11
 Force Cnst:      1.0091                 0.7777                 1.1798
 Red. Mass:       2.0482                 1.5069                 2.2561
 IR Intens:        1.920                  0.603                  6.353
 Frequency:      1021.74                1036.39                1063.11
 Force Cnst:      1.4194                 1.1410                 0.9387
 Red. Mass:       2.3077                 1.8029                 1.4097
 IR Intens:        7.137                  1.755                  2.203
 Frequency:      1091.90                1103.09                1119.28
 Force Cnst:      0.8042                 1.8205                 2.4370
 Red. Mass:       1.1448                 2.5393                 3.3016
 IR Intens:        0.009                  1.760                 24.800
 Frequency:      1178.78                1210.31                1243.45
 Force Cnst:      2.0709                 1.2784                 1.8713
 Red. Mass:       2.5296                 1.4812                 2.0541
 IR Intens:       17.781                  1.242                 50.139
 Frequency:      1274.90                1288.68                1295.63
 Force Cnst:      1.2601                 1.2364                 1.3606
 Red. Mass:       1.3158                 1.2636                 1.3757
 IR Intens:       13.421                  2.694                  6.718
 Frequency:      1342.19                1343.88                1375.01
 Force Cnst:      1.3374                 1.3182                 1.5429
 Red. Mass:       1.2601                 1.2389                 1.3851
 IR Intens:        5.147                  8.144                  1.317
 Frequency:      1383.25                1385.12                1387.62
 Force Cnst:      1.5372                 1.6841                 1.6875
 Red. Mass:       1.3636                 1.4899                 1.4875
 IR Intens:        0.531                  0.033                 10.636
 Frequency:      1404.38                1494.96                1497.44
 Force Cnst:      1.7089                 1.4327                 1.4385
 Red. Mass:       1.4706                 1.0880                 1.0889
 IR Intens:        0.680                  0.116                  5.261
 Frequency:      1500.46                1501.42                1513.71
 Force Cnst:      1.4569                 1.4493                 1.4866
 Red. Mass:       1.0983                 1.0912                 1.1012
 IR Intens:        7.475                 11.246                  0.684
 Frequency:      1553.51                1678.00                2237.22
 Force Cnst:      2.5071                14.3021                 7.0667
 Red. Mass:       1.7632                 8.6212                 2.3964
 IR Intens:      256.364                850.051                100.193
 Frequency:      3013.75                3013.93                3018.01
 Force Cnst:      5.7165                 5.7176                 5.7367
 Red. Mass:       1.0682                 1.0683                 1.0690
 IR Intens:       35.120                 37.123                 15.579
 Frequency:      3019.43                3020.86                3062.49
 Force Cnst:      5.7060                 5.7012                 6.0461
 Red. Mass:       1.0623                 1.0604                 1.0941
 IR Intens:        8.462                145.037                116.356
 Frequency:      3063.84                3067.51                3069.07
 Force Cnst:      6.0676                 6.0847                 6.0847
 Red. Mass:       1.0971                 1.0975                 1.0964
 IR Intens:      119.053                 77.046                 86.767
 Frequency:      3070.77                3097.32                3581.09
 Force Cnst:      6.1091                 6.1494                 8.1480
 Red. Mass:       1.0996                 1.0879                 1.0784
 IR Intens:       48.298                 56.123                 58.540

 STANDARD THERMODYNAMIC QUANTITIES AT   298.18 K  AND     1.00 ATM

   This Molecule has  1 Imaginary Frequencies
   Zero point vibrational energy:      121.851 kcal/mol

   Atom    1 Element C  Has Mass   12.00000
   Atom    2 Element C  Has Mass   12.00000
   Atom    3 Element C  Has Mass   12.00000
   Atom    4 Element C  Has Mass   12.00000
   Atom    5 Element C  Has Mass   12.00000
   Atom    6 Element C  Has Mass   12.00000
   Atom    7 Element H  Has Mass    1.00783
   Atom    8 Element H  Has Mass    1.00783
   Atom    9 Element H  Has Mass    1.00783
   Atom   10 Element H  Has Mass    1.00783
   Atom   11 Element H  Has Mass    1.00783
   Atom   12 Element H  Has Mass    1.00783
   Atom   13 Element H  Has Mass    1.00783
   Atom   14 Element H  Has Mass    1.00783
   Atom   15 Element H  Has Mass    1.00783
   Atom   16 Element H  Has Mass    1.00783
   Atom   17 Element H  Has Mass    1.00783
   Atom   18 Element N  Has Mass   14.00307
   Atom   19 Element H  Has Mass    1.00783
   Atom   20 Element C  Has Mass   12.00000
   Atom   21 Element H  Has Mass    2.01410
   Atom   22 Element O  Has Mass   15.99491
   Molecular Mass:   128.106042 amu
   Principal axes and moments of inertia in amu*Bohr^2:
                             1           2           3
    Eigenvalues --      538.08129  2028.62616  2229.31932
          X               0.39058    -0.42711     0.81549
          Y               0.16126     0.90390     0.39618
          Z               0.90633     0.02323    -0.42193
   Rotational Symmetry Number is   1
   The Molecule is an Asymmetric Top
   Translational Enthalpy:        0.889 kcal/mol
   Rotational Enthalpy:           0.889 kcal/mol
   Vibrational Enthalpy:        125.136 kcal/mol
   gas constant (RT):             0.593 kcal/mol
   Translational Entropy:        40.457  cal/mol.K
   Rotational Entropy:           29.277  cal/mol.K
   Vibrational Entropy:          18.130  cal/mol.K

   Total Enthalpy:              127.506 kcal/mol
   Total Entropy:                87.864  cal/mol.K

 Total job time:  1214.68s(wall), 17227.10s(cpu)
        *  Thank you very much for using Q-Chem.  Have a nice day.  *
