 Q-Chem 5.2 (devel), Q-Chem, Inc., Pleasanton, CA (2019)
 Q-Chem 5.2.2 for Intel X86 EM64T Linux

User input:
--------------------------------------------------------------
$molecule
0 1
C    0.58000    11.83000   20.41000
C    0.42000    10.41000   19.83000
C    1.53000    9.53000    20.44000
C    1.44000    9.53000    21.98000
C    1.37000    10.92000   22.65000
C    0.42000    11.90000   21.94000
H    1.49000    8.50000    20.05000
H    -0.52000   10.00000   20.20000
H    1.40000    12.47000   20.08000
H    -0.28000   12.43000   20.08000
H    0.54000    9.00000    22.28000
H    2.32000    8.99000    22.34000
H    1.27000    10.83000   23.73000
H    2.37000    11.32000   22.50000
H    -0.63000   11.62000   22.11000
H    0.56000    12.91000   22.33000
H    2.51000    9.84000    20.07000
N    0.54000    10.41000   18.38000
H    1.39000    10.78000   17.99000
C    -0.47000   10.09000   17.50000
H    -0.16000   10.30000   16.46000
O    -1.56000   9.66000    17.84000
$end

$rem
JOBTYPE  OPT
METHOD  B3LYP
BASIS  6-31+G(D)
SYMMETRY  FALSE
SYM_IGNORE  FALSE
MEM_TOTAL  8000
MEM_STATIC  2000
MAX_SUB_FILE_NUM  16000
BASIS_LIN_DEP_THRESH  6
THRESH  14
SCF_CONVERGENCE  8
GEN_SCFMAN  TRUE
SCF_GUESS  SAD
FD_MAT_VEC_PROD  FALSE
XC_GRID  000099000590
NL_GRID  1
MAX_SCF_CYCLES  200
GEOM_OPT_TOL_GRADIENT  100
GEOM_OPT_TOL_DISPLACEMENT  100
GEOM_OPT_TOL_ENERGY  10
SOLVENT_METHOD       PCM
$end

$PCM
THEORY                     CPCM
METHOD                     SWIG
SOLVER                     INVERSION
HPOINTS                    302
HEAVYPOINTS                302
$END

$SOLVENT
DIELECTRIC                 2.37
$END

--------------------------------------------------------------

   13    -404.5759611762      7.47e-09  Convergence criterion met
 Total energy in the final basis set =     -404.5759611762
   11    -404.5865163584      6.42e-09  Convergence criterion met
 Total energy in the final basis set =     -404.5865163584
   11    -404.5921327949      6.45e-09  Convergence criterion met
 Total energy in the final basis set =     -404.5921327949
   11    -404.5939400446      6.33e-09  Convergence criterion met
 Total energy in the final basis set =     -404.5939400446
   11    -404.5947612801      6.28e-09  Convergence criterion met
 Total energy in the final basis set =     -404.5947612801
   11    -404.5949027862      5.51e-09  Convergence criterion met
 Total energy in the final basis set =     -404.5949027862
   11    -404.5949135210      5.76e-09  Convergence criterion met
 Total energy in the final basis set =     -404.5949135210
   11    -404.5949168767      5.79e-09  Convergence criterion met
 Total energy in the final basis set =     -404.5949168767
   11    -404.5949181308      5.82e-09  Convergence criterion met
 Total energy in the final basis set =     -404.5949181308
   11    -404.5949183439      5.80e-09  Convergence criterion met
 Total energy in the final basis set =     -404.5949183439
   11    -404.5949183758      5.80e-09  Convergence criterion met
 Total energy in the final basis set =     -404.5949183758
 Final energy is   -404.594918375819
 **  OPTIMIZATION CONVERGED  **
 Total job time:  759.58s(wall), 10517.97s(cpu)
        *  Thank you very much for using Q-Chem.  Have a nice day.  *

User input: 2 of 2

                  Welcome to Q-Chem
     A Quantum Leap Into The Future Of Chemistry

 Q-Chem 5.2 (devel), Q-Chem, Inc., Pleasanton, CA (2019)

 Yihan Shao,  Zhengting Gan,  E. Epifanovsky,  A. T. B. Gilbert,  M. Wormit,
 J. Kussmann,  A. W. Lange,  A. Behn,  Jia Deng,  Xintian Feng,  D. Ghosh,
 M. Goldey,  P. R. Horn,  L. D. Jacobson,  I. Kaliman,  T. Kus,  A. Landau,
 Jie Liu,  E. I. Proynov,  R. M. Richard,  R. P. Steele,  E. J. Sundstrom,
 H. L. Woodcock III,  P. M. Zimmerman,  D. Zuev,  B. Alam,  B. Albrecht,
 E. Alguire,  S. A. Baeppler,  D. Barton,  Z. Benda,  Y. A. Bernard,
 E. J. Berquist,  K. B. Bravaya,  H. Burton,  K. Carter-Fenk,  D. Casanova,
 Chun-Min Chang,  Yunqing Chen,  A. Chien,  K. D. Closser,  M. P. Coons,
 S. Coriani,  S. Dasgupta,  A. L. Dempwolff,  M. Diedenhofen,  Hainam Do,
 R. G. Edgar,  Po-Tung Fang,  S. Faraji,  S. Fatehi,  Qingguo Feng,
 J. Fosso-Tande,  J. Gayvert,  Qinghui Ge,  A. Ghysels,  G. Gidofalvi,
 J. Gomes,  J. Gonthier,  A. Gunina,  D. Hait,  M. W. D. Hanson-Heine,
 P. H. P. Harbach,  A. W. Hauser,  M. F. Herbst,  J. E. Herr,
 E. G. Hohenstein,  Z. C. Holden,  Kerwin Hui,  B. C. Huynh,  T.-C. Jagau,
 Hyunjun Ji,  B. Kaduk,  K. Khistyaev,  Jaehoon Kim,  P. Klunzinger,  K. Koh,
 D. Kosenkov,  L. Koulias,  T. Kowalczyk,  C. M. Krauter,  A. Kunitsa,
 Ka Un Lao,  A. Laurent,  K. V. Lawler,  Joonho Lee,  D. Lefrancois,
 S. Lehtola,  D. S. Levine,  Yi-Pei Li,  You-Sheng Lin,  Fenglai Liu,
 Kuan-Yu Liu,  E. Livshits,  M. Loipersberger,  A. Luenser,  P. Manohar,
 E. Mansoor,  S. F. Manzer,  Shan-Ping Mao,  Yuezhi Mao,  N. Mardirossian,
 A. V. Marenich,  T. Markovich,  L. A. Martinez-Martinez,  S. A. Maurer,
 N. J. Mayhall,  S. C. McKenzie,  J.-M. Mewes,  P. Morgante,  A. F. Morrison,
 J. W. Mullinax,  K. Nanda,  T. S. Nguyen-Beck,  R. Olivares-Amaya,
 J. A. Parkhill,  S. K. Paul,  F. Pavosevic,  Zheng Pei,  T. M. Perrine,
 F. Plasser,  P. Pokhilko,  S. Prager,  A. Prociuk,  E. Ramos,  B. Rana,
 D. R. Rehn,  F. Rob,  M. Scheurer,  M. Schneider,  N. Sergueev,
 S. M. Sharada,  S. Sharma,  D. W. Small,  T. Stauch,  C. J. Stein,
 T. Stein,  Yu-Chuan Su,  S. P. Veccham,  Zhen Tao,  A. J. W. Thom,
 A. Tkatchenko,  T. Tsuchimochi,  N. M. Tubman,  L. Vogt,  M. L. Vidal,
 O. Vydrov,  M. A. Watson,  J. Wenzel,  M. de Wergifosse,  T. A. Wesolowski,
 A. White,  J. Witte,  A. Yamada,  Jun Yang,  K. Yao,  S. Yeganeh,
 S. R. Yost,  Zhi-Qiang You,  A. Zech,  Igor Ying Zhang,  Xing Zhang,
 Yan Zhao,  Ying Zhu,  B. R. Brooks,  G. K. L. Chan,  C. J. Cramer,
 M. S. Gordon,  W. J. Hehre,  A. Klamt,  M. W. Schmidt,  C. D. Sherrill,
 D. G. Truhlar,  A. Aspuru-Guzik,  R. Baer,  A. T. Bell,  N. A. Besley,
 Jeng-Da Chai,  A. E. DePrince, III,  R. A. DiStasio Jr.,  A. Dreuw,
 B. D. Dunietz,  T. R. Furlani,  Chao-Ping Hsu,  Yousung Jung,  Jing Kong,
 D. S. Lambrecht,  WanZhen Liang,  C. Ochsenfeld,  V. A. Rassolov,
 L. V. Slipchenko,  J. E. Subotnik,  T. Van Voorhis,  J. M. Herbert,
 A. I. Krylov,  P. M. W. Gill,  M. Head-Gordon

 Contributors to earlier versions of Q-Chem not listed above:
 R. D. Adamson,  B. Austin,  J. Baker,  G. J. O. Beran,  K. Brandhorst,
 S. T. Brown,  E. F. C. Byrd,  A. K. Chakraborty,  C.-L. Cheng,
 Siu Hung Chien,  D. M. Chipman,  D. L. Crittenden,  H. Dachsel,
 R. J. Doerksen,  A. D. Dutoi,  L. Fusti-Molnar,  W. A. Goddard III,
 A. Golubeva-Zadorozhnaya,  S. R. Gwaltney,  G. Hawkins,  A. Heyden,
 S. Hirata,  G. Kedziora,  F. J. Keil,  C. Kelley,  Jihan Kim,  R. A. King,
 R. Z. Khaliullin,  P. P. Korambath,  W. Kurlancheek,  A. M. Lee,  M. S. Lee,
 S. V. Levchenko,  Ching Yeh Lin,  D. Liotard,  R. C. Lochan,  I. Lotan,
 P. E. Maslen,  N. Nair,  D. P. O'Neill,  D. Neuhauser,  E. Neuscamman,
 C. M. Oana,  R. Olson,  B. Peters,  R. Peverati,  P. A. Pieniazek,
 Y. M. Rhee,  J. Ritchie,  M. A. Rohrdanz,  E. Rosta,  N. J. Russ,
 H. F. Schaefer III,  N. E. Schultz,  N. Shenvi,  A. C. Simmonett,  A. Sodt,
 D. Stuck,  K. S. Thanthiriwatte,  V. Vanovschi,  Tao Wang,  A. Warshel,
 C. F. Williams,  Q. Wu,  X. Xu,  W. Zhang

 Please cite Q-Chem as follows:
 Y. Shao et al., Mol. Phys. 113, 184-215 (2015)
 DOI: 10.1080/00268976.2014.952696

 Q-Chem 5.2.2 for Intel X86 EM64T Linux

 Parts of Q-Chem use Armadillo 9.800.1 (Horizon Scraper).
 http://arma.sourceforge.net/

 Q-Chem begins on Thu Apr  8 15:21:29 2021

Host: node027
0

     Scratch files written to /home/ymao90/scratch/probe_b3lyp_toluene20210408150848//
The previous job contains 0 fragments, simply inherited here
Symmetry turned off for PCM/SM12/SMD calculation

Checking the input file for inconsistencies... 	...done.

--------------------------------------------------------------
User input:
--------------------------------------------------------------

$molecule
read
$end

$rem
JOBTYPE  FREQ
METHOD  B3LYP
BASIS  6-31+G(D)
SYMMETRY  FALSE
SYM_IGNORE  FALSE
MEM_TOTAL  8000
MEM_STATIC  2000
MAX_SUB_FILE_NUM  16000
BASIS_LIN_DEP_THRESH  6
THRESH  14
SCF_CONVERGENCE  8
GEN_SCFMAN  TRUE
SCF_GUESS  READ
FD_MAT_VEC_PROD  FALSE
XC_GRID  000099000590
NL_GRID  1
MAX_SCF_CYCLES  200
ISOTOPES TRUE
SOLVENT_METHOD  PCM
$end

$isotopes
1 0
1
 21 2.0141018
$end

$PCM
THEORY                     CPCM
METHOD                     SWIG
SOLVER                     INVERSION
HPOINTS                    302
HEAVYPOINTS                302
$END

$SOLVENT
DIELECTRIC                 2.37
$END
--------------------------------------------------------------

             Standard Nuclear Orientation (Angstroms)
    I     Atom           X                Y                Z
 ----------------------------------------------------------------
    1      C       0.4859459178    11.8632774904    20.4281973703
    2      C       0.4297884151    10.4402576707    19.8431096567
    3      C       1.5155686883     9.5399560486    20.4585295902
    4      C       1.4280998558     9.5241262369    21.9938448065
    5      C       1.4824900988    10.9438653391    22.5797998263
    6      C       0.3990453961    11.8428275171    21.9634187520
    7      H       1.4187688338     8.5241430203    20.0551153854
    8      H      -0.5539870231    10.0079371118    20.0524119258
    9      H       1.4313919916    12.3370679382    20.1208293808
   10      H      -0.3273425563    12.4640729434    20.0022622082
   11      H       0.4858734078     9.0429735431    22.2960159782
   12      H       2.2394226986     8.9090576209    22.4041877978
   13      H       1.3677730137    10.9070102298    23.6710507389
   14      H       2.4731390330    11.3809676148    22.3812811503
   15      H      -0.5929363172    11.4732889725    22.2635381671
   16      H       0.4830281884    12.8657292276    22.3527314179
   17      H       2.5050836146     9.9147824323    20.1526268368
   18      N       0.5453611799    10.4683407045    18.3824059755
   19      H       1.4183162758    10.7944752248    17.9818023155
   20      C      -0.4309029123    10.1089710848    17.5182576015
   21      H      -0.1215767450    10.2156048464    16.4633915033
   22      O      -1.5523510554     9.7012671818    17.8251916149
 ----------------------------------------------------------------

   11    -404.5949183753      5.80e-09  Convergence criterion met
 Total energy in the final basis set =     -404.5949183753

                    Orbital Energies (a.u.)
 --------------------------------------------------------------

 Alpha MOs
 -- Occupied --
-19.1304 -14.3726 -10.2926 -10.2283 -10.1882 -10.1874 -10.1853 -10.1850
-10.1835  -1.0381  -0.9337  -0.8288  -0.7464  -0.7461  -0.6398  -0.6162
 -0.5952  -0.5676  -0.5287  -0.4857  -0.4633  -0.4465  -0.4414  -0.4201
 -0.4176  -0.3996  -0.3834  -0.3758  -0.3518  -0.3487  -0.3270  -0.3171
 -0.3135  -0.2661  -0.2605

          Ground-State Mulliken Net Atomic Charges

     Atom                 Charge (a.u.)
  ----------------------------------------
      1 C                    -0.258506
      2 C                    -0.472019
      3 C                    -0.278178
      4 C                    -0.439465
      5 C                    -0.384398
      6 C                    -0.441973
      7 H                     0.212262
      8 H                     0.236142
      9 H                     0.203882
     10 H                     0.212131
     11 H                     0.207173
     12 H                     0.201098
     13 H                     0.198663
     14 H                     0.199121
     15 H                     0.207186
     16 H                     0.201130
     17 H                     0.203576
     18 N                    -0.383490
     19 H                     0.425434
     20 C                     0.339935
     21 H                     0.165082
     22 O                    -0.554787
  ----------------------------------------
  Sum of atomic charges =     0.000000

                    Cartesian Multipole Moments
 -----------------------------------------------------------------
    Charge (ESU x 10^10)
                -0.0000
    Dipole Moment (Debye)
         X       4.6511      Y       1.7308      Z       1.1007
       Tot       5.0833
    Quadrupole Moments (Debye-Ang)
        XX     -60.8941     XY      46.3582     YY     -21.8988
        XZ      83.6750     YZ      42.4833     ZZ     -10.9246

 Frequency:       -11.99                  97.54                 185.97
 Force Cnst:      0.0004                 0.0205                 0.0440
 Red. Mass:       4.7874                 3.6632                 2.1609
 IR Intens:       10.464                  7.215                 49.247
 Frequency:       209.91                 227.79                 334.04
 Force Cnst:      0.0934                 0.0546                 0.1242
 Red. Mass:       3.5989                 1.7847                 1.8889
 IR Intens:        9.917                  0.117                  0.122
 Frequency:       397.72                 404.44                 449.07
 Force Cnst:      0.3378                 0.3695                 0.2666
 Red. Mass:       3.6245                 3.8344                 2.2441
 IR Intens:       13.227                 25.940                  0.547
 Frequency:       461.74                 532.95                 570.18
 Force Cnst:      0.4564                 0.2701                 0.2199
 Red. Mass:       3.6333                 1.6142                 1.1479
 IR Intens:        8.204                  1.989                 71.066
 Frequency:       745.47                 799.68                 822.70
 Force Cnst:      1.3631                 0.5430                 0.9803
 Red. Mass:       4.1631                 1.4411                 2.4581
 IR Intens:        4.762                  0.142                  0.708
 Frequency:       850.49                 903.26                 917.92
 Force Cnst:      0.8546                 0.8977                 0.9706
 Red. Mass:       2.0054                 1.8676                 1.9551
 IR Intens:        1.767                 11.881                  0.774
 Frequency:       936.45                 965.89                1021.88
 Force Cnst:      0.7721                 1.2952                 0.9828
 Red. Mass:       1.4943                 2.3563                 1.5973
 IR Intens:        0.495                  5.684                  0.061
 Frequency:      1037.71                1066.15                1072.08
 Force Cnst:      1.1287                 0.9375                 2.4621
 Red. Mass:       1.7789                 1.3998                 3.6358
 IR Intens:        2.152                  2.020                 13.588
 Frequency:      1094.06                1103.74                1175.69
 Force Cnst:      0.8212                 1.7965                 1.8613
 Red. Mass:       1.1645                 2.5029                 2.2855
 IR Intens:        0.034                  1.734                  2.597
 Frequency:      1213.49                1230.23                1278.09
 Force Cnst:      1.2779                 1.6509                 1.2793
 Red. Mass:       1.4729                 1.8514                 1.3293
 IR Intens:        1.314                 81.544                 15.374
 Frequency:      1291.57                1296.93                1344.15
 Force Cnst:      1.2409                 1.3350                 1.3672
 Red. Mass:       1.2626                 1.3471                 1.2843
 IR Intens:        2.773                  7.926                  2.678
 Frequency:      1347.03                1376.76                1384.98
 Force Cnst:      1.3189                 1.5465                 1.5129
 Red. Mass:       1.2337                 1.3848                 1.3387
 IR Intens:       14.526                  1.093                  0.650
 Frequency:      1388.06                1390.11                1406.41
 Force Cnst:      1.7055                 1.6868                 1.7258
 Red. Mass:       1.5024                 1.4816                 1.4809
 IR Intens:        0.120                  8.951                  1.315
 Frequency:      1429.12                1498.35                1501.69
 Force Cnst:      1.4772                 1.4385                 1.4514
 Red. Mass:       1.2276                 1.0875                 1.0924
 IR Intens:       29.162                  0.171                  4.017
 Frequency:      1504.33                1506.47                1519.09
 Force Cnst:      1.4630                 1.4530                 1.4976
 Red. Mass:       1.0972                 1.0867                 1.1015
 IR Intens:        6.640                 12.694                  0.691
 Frequency:      1554.27                1730.17                3005.72
 Force Cnst:      2.6138                11.3415                 5.7775
 Red. Mass:       1.8364                 6.4305                 1.0854
 IR Intens:      258.129                600.147                113.212
 Frequency:      3008.35                3012.12                3013.88
 Force Cnst:      5.6974                 5.7039                 5.7350
 Red. Mass:       1.0685                 1.0670                 1.0716
 IR Intens:       22.533                 42.144                 45.449
 Frequency:      3020.90                3022.66                3063.80
 Force Cnst:      5.7167                 5.7135                 6.0441
 Red. Mass:       1.0632                 1.0614                 1.0928
 IR Intens:       17.609                 81.944                 99.218
 Frequency:      3065.06                3069.03                3070.91
 Force Cnst:      6.0771                 6.1016                 6.0806
 Red. Mass:       1.0979                 1.0995                 1.0944
 IR Intens:       87.817                 71.785                 54.044
 Frequency:      3072.69                3098.18                3586.08
 Force Cnst:      6.0995                 6.1533                 8.1684
 Red. Mass:       1.0965                 1.0880                 1.0781
 IR Intens:       47.177                 35.697                 33.880
 Frequency:       -11.98                  96.88                 166.33
 Force Cnst:      0.0004                 0.0204                 0.0448
 Red. Mass:       4.7957                 3.6839                 2.7472
 IR Intens:       10.448                  7.024                 39.435
 Frequency:       209.63                 227.78                 333.85
 Force Cnst:      0.0938                 0.0545                 0.1247
 Red. Mass:       3.6234                 1.7842                 1.8982
 IR Intens:        9.280                  0.076                  0.106
 Frequency:       392.54                 398.83                 448.89
 Force Cnst:      0.3417                 0.3833                 0.2689
 Red. Mass:       3.7643                 4.0895                 2.2646
 IR Intens:       11.799                 17.562                  0.581
 Frequency:       458.53                 530.36                 558.40
 Force Cnst:      0.4274                 0.2676                 0.2088
 Red. Mass:       3.4502                 1.6147                 1.1366
 IR Intens:        2.387                  1.636                 90.402
 Frequency:       736.07                 799.68                 820.56
 Force Cnst:      1.3143                 0.5429                 0.9659
 Red. Mass:       4.1171                 1.4410                 2.4349
 IR Intens:        4.528                  0.140                  0.515
 Frequency:       849.42                 860.28                 903.32
 Force Cnst:      0.8676                 1.7646                 0.8943
 Red. Mass:       2.0410                 4.0469                 1.8602
 IR Intens:        2.078                  0.505                 11.763
 Frequency:       915.47                 936.59                 942.20
 Force Cnst:      1.0116                 0.7745                 1.1769
 Red. Mass:       2.0487                 1.4986                 2.2501
 IR Intens:        1.420                  0.566                  4.716
 Frequency:      1021.63                1038.16                1065.57
 Force Cnst:      1.4113                 1.1494                 0.9436
 Red. Mass:       2.2950                 1.8101                 1.4105
 IR Intens:        4.568                  1.494                  1.775
 Frequency:      1093.99                1103.32                1120.68
 Force Cnst:      0.8133                 1.8336                 2.4497
 Red. Mass:       1.1534                 2.5565                 3.3106
 IR Intens:        0.032                  1.553                 20.195
 Frequency:      1180.45                1213.07                1235.02
 Force Cnst:      2.0789                 1.2772                 1.9058
 Red. Mass:       2.5322                 1.4731                 2.1207
 IR Intens:       13.620                  0.952                 61.481
 Frequency:      1277.66                1291.56                1296.16
 Force Cnst:      1.2760                 1.2410                 1.3228
 Red. Mass:       1.3267                 1.2627                 1.3364
 IR Intens:       12.850                  2.740                  5.418
 Frequency:      1343.87                1346.16                1376.73
 Force Cnst:      1.3515                 1.3179                 1.5464
 Red. Mass:       1.2702                 1.2343                 1.3847
 IR Intens:        4.270                 10.359                  1.063
 Frequency:      1384.92                1388.04                1390.09
 Force Cnst:      1.5121                 1.7053                 1.6866
 Red. Mass:       1.3381                 1.5023                 1.4815
 IR Intens:        0.604                  0.104                  9.028
 Frequency:      1405.85                1498.35                1501.68
 Force Cnst:      1.7145                 1.4385                 1.4513
 Red. Mass:       1.4724                 1.0875                 1.0923
 IR Intens:        1.017                  0.173                  4.147
 Frequency:      1504.33                1506.46                1519.04
 Force Cnst:      1.4630                 1.4531                 1.4984
 Red. Mass:       1.0972                 1.0867                 1.1021
 IR Intens:        6.621                 12.513                  1.011
 Frequency:      1548.50                1708.59                2221.66
 Force Cnst:      2.4654                15.0519                 6.9952
 Red. Mass:       1.7451                 8.7511                 2.4054
 IR Intens:      215.533                659.337                102.592
 Frequency:      3008.35                3012.10                3013.84
 Force Cnst:      5.6972                 5.7036                 5.7345
 Red. Mass:       1.0685                 1.0670                 1.0715
 IR Intens:       21.119                 34.861                 40.884
 Frequency:      3020.90                3022.66                3063.80
 Force Cnst:      5.7167                 5.7135                 6.0440
 Red. Mass:       1.0632                 1.0614                 1.0928
 IR Intens:       17.606                 82.132                100.666
 Frequency:      3065.06                3069.03                3070.91
 Force Cnst:      6.0771                 6.1017                 6.0804
 Red. Mass:       1.0979                 1.0995                 1.0943
 IR Intens:       87.819                 71.480                 53.470
 Frequency:      3072.69                3098.15                3586.03
 Force Cnst:      6.0995                 6.1532                 8.1680
 Red. Mass:       1.0965                 1.0880                 1.0780
 IR Intens:       47.114                 37.436                 34.281

 STANDARD THERMODYNAMIC QUANTITIES AT   298.18 K  AND     1.00 ATM

   This Molecule has  1 Imaginary Frequencies
   Zero point vibrational energy:      121.901 kcal/mol

   Atom    1 Element C  Has Mass   12.00000
   Atom    2 Element C  Has Mass   12.00000
   Atom    3 Element C  Has Mass   12.00000
   Atom    4 Element C  Has Mass   12.00000
   Atom    5 Element C  Has Mass   12.00000
   Atom    6 Element C  Has Mass   12.00000
   Atom    7 Element H  Has Mass    1.00783
   Atom    8 Element H  Has Mass    1.00783
   Atom    9 Element H  Has Mass    1.00783
   Atom   10 Element H  Has Mass    1.00783
   Atom   11 Element H  Has Mass    1.00783
   Atom   12 Element H  Has Mass    1.00783
   Atom   13 Element H  Has Mass    1.00783
   Atom   14 Element H  Has Mass    1.00783
   Atom   15 Element H  Has Mass    1.00783
   Atom   16 Element H  Has Mass    1.00783
   Atom   17 Element H  Has Mass    1.00783
   Atom   18 Element N  Has Mass   14.00307
   Atom   19 Element H  Has Mass    1.00783
   Atom   20 Element C  Has Mass   12.00000
   Atom   21 Element H  Has Mass    2.01410
   Atom   22 Element O  Has Mass   15.99491
   Molecular Mass:   128.106042 amu
   Principal axes and moments of inertia in amu*Bohr^2:
                             1           2           3
    Eigenvalues --      539.19165  2025.07743  2225.12691
          X               0.39145    -0.43050     0.81329
          Y               0.15992     0.90219     0.40059
          Z               0.90620     0.02675    -0.42201
   Rotational Symmetry Number is   1
   The Molecule is an Asymmetric Top
   Translational Enthalpy:        0.889 kcal/mol
   Rotational Enthalpy:           0.889 kcal/mol
   Vibrational Enthalpy:        125.195 kcal/mol
   gas constant (RT):             0.593 kcal/mol
   Translational Entropy:        40.457  cal/mol.K
   Rotational Entropy:           29.276  cal/mol.K
   Vibrational Entropy:          18.165  cal/mol.K

   Total Enthalpy:              127.566 kcal/mol
   Total Entropy:                87.897  cal/mol.K

 Total job time:  903.27s(wall), 12292.85s(cpu)
        *  Thank you very much for using Q-Chem.  Have a nice day.  *
