 Q-Chem 5.2 (devel), Q-Chem, Inc., Pleasanton, CA (2019)
 Q-Chem 5.2.2 for Intel X86 EM64T Linux

User input:
--------------------------------------------------------------
$molecule
0 1
C    0.58000    11.83000   20.41000
C    0.42000    10.41000   19.83000
C    1.53000    9.53000    20.44000
C    1.44000    9.53000    21.98000
C    1.37000    10.92000   22.65000
C    0.42000    11.90000   21.94000
H    1.49000    8.50000    20.05000
H    -0.52000   10.00000   20.20000
H    1.40000    12.47000   20.08000
H    -0.28000   12.43000   20.08000
H    0.54000    9.00000    22.28000
H    2.32000    8.99000    22.34000
H    1.27000    10.83000   23.73000
H    2.37000    11.32000   22.50000
H    -0.63000   11.62000   22.11000
H    0.56000    12.91000   22.33000
H    2.51000    9.84000    20.07000
N    0.54000    10.41000   18.38000
H    1.39000    10.78000   17.99000
C    -0.47000   10.09000   17.50000
H    -0.16000   10.30000   16.46000
O    -1.56000   9.66000    17.84000
$end

$rem
JOBTYPE  OPT
METHOD  B3LYP
BASIS  6-31+G(D)
SYMMETRY  FALSE
SYM_IGNORE  FALSE
MEM_TOTAL  8000
MEM_STATIC  2000
MAX_SUB_FILE_NUM  16000
BASIS_LIN_DEP_THRESH  6
THRESH  14
SCF_CONVERGENCE  8
GEN_SCFMAN  TRUE
SCF_GUESS  SAD
FD_MAT_VEC_PROD  FALSE
XC_GRID  000099000590
NL_GRID  1
MAX_SCF_CYCLES  200
GEOM_OPT_TOL_GRADIENT  100
GEOM_OPT_TOL_DISPLACEMENT  100
GEOM_OPT_TOL_ENERGY  10
SOLVENT_METHOD       PCM
$end

$PCM
THEORY                     CPCM
METHOD                     SWIG
SOLVER                     INVERSION
HPOINTS                    302
HEAVYPOINTS                302
$END

$SOLVENT
DIELECTRIC                 7.43
$END

--------------------------------------------------------------

   13    -404.5806112763      6.24e-09  Convergence criterion met
 Total energy in the final basis set =     -404.5806112763
   12    -404.5913158156      2.65e-09  Convergence criterion met
 Total energy in the final basis set =     -404.5913158156
   12    -404.5970318901      2.68e-09  Convergence criterion met
 Total energy in the final basis set =     -404.5970318901
   12    -404.5988789995      2.81e-09  Convergence criterion met
 Total energy in the final basis set =     -404.5988789995
   12    -404.5997217174      2.88e-09  Convergence criterion met
 Total energy in the final basis set =     -404.5997217174
   11    -404.5998603437      9.37e-09  Convergence criterion met
 Total energy in the final basis set =     -404.5998603437
   11    -404.5998714049      9.73e-09  Convergence criterion met
 Total energy in the final basis set =     -404.5998714049
   11    -404.5998741218      9.78e-09  Convergence criterion met
 Total energy in the final basis set =     -404.5998741218
   11    -404.5998749557      9.81e-09  Convergence criterion met
 Total energy in the final basis set =     -404.5998749557
   11    -404.5998750631      9.78e-09  Convergence criterion met
 Total energy in the final basis set =     -404.5998750631
   11    -404.5998750713      9.79e-09  Convergence criterion met
 Total energy in the final basis set =     -404.5998750713
 Final energy is   -404.599875071268
 **  OPTIMIZATION CONVERGED  **
 Total job time:  811.96s(wall), 11183.69s(cpu)
        *  Thank you very much for using Q-Chem.  Have a nice day.  *

User input: 2 of 2

                  Welcome to Q-Chem
     A Quantum Leap Into The Future Of Chemistry

 Q-Chem 5.2 (devel), Q-Chem, Inc., Pleasanton, CA (2019)

 Yihan Shao,  Zhengting Gan,  E. Epifanovsky,  A. T. B. Gilbert,  M. Wormit,
 J. Kussmann,  A. W. Lange,  A. Behn,  Jia Deng,  Xintian Feng,  D. Ghosh,
 M. Goldey,  P. R. Horn,  L. D. Jacobson,  I. Kaliman,  T. Kus,  A. Landau,
 Jie Liu,  E. I. Proynov,  R. M. Richard,  R. P. Steele,  E. J. Sundstrom,
 H. L. Woodcock III,  P. M. Zimmerman,  D. Zuev,  B. Alam,  B. Albrecht,
 E. Alguire,  S. A. Baeppler,  D. Barton,  Z. Benda,  Y. A. Bernard,
 E. J. Berquist,  K. B. Bravaya,  H. Burton,  K. Carter-Fenk,  D. Casanova,
 Chun-Min Chang,  Yunqing Chen,  A. Chien,  K. D. Closser,  M. P. Coons,
 S. Coriani,  S. Dasgupta,  A. L. Dempwolff,  M. Diedenhofen,  Hainam Do,
 R. G. Edgar,  Po-Tung Fang,  S. Faraji,  S. Fatehi,  Qingguo Feng,
 J. Fosso-Tande,  J. Gayvert,  Qinghui Ge,  A. Ghysels,  G. Gidofalvi,
 J. Gomes,  J. Gonthier,  A. Gunina,  D. Hait,  M. W. D. Hanson-Heine,
 P. H. P. Harbach,  A. W. Hauser,  M. F. Herbst,  J. E. Herr,
 E. G. Hohenstein,  Z. C. Holden,  Kerwin Hui,  B. C. Huynh,  T.-C. Jagau,
 Hyunjun Ji,  B. Kaduk,  K. Khistyaev,  Jaehoon Kim,  P. Klunzinger,  K. Koh,
 D. Kosenkov,  L. Koulias,  T. Kowalczyk,  C. M. Krauter,  A. Kunitsa,
 Ka Un Lao,  A. Laurent,  K. V. Lawler,  Joonho Lee,  D. Lefrancois,
 S. Lehtola,  D. S. Levine,  Yi-Pei Li,  You-Sheng Lin,  Fenglai Liu,
 Kuan-Yu Liu,  E. Livshits,  M. Loipersberger,  A. Luenser,  P. Manohar,
 E. Mansoor,  S. F. Manzer,  Shan-Ping Mao,  Yuezhi Mao,  N. Mardirossian,
 A. V. Marenich,  T. Markovich,  L. A. Martinez-Martinez,  S. A. Maurer,
 N. J. Mayhall,  S. C. McKenzie,  J.-M. Mewes,  P. Morgante,  A. F. Morrison,
 J. W. Mullinax,  K. Nanda,  T. S. Nguyen-Beck,  R. Olivares-Amaya,
 J. A. Parkhill,  S. K. Paul,  F. Pavosevic,  Zheng Pei,  T. M. Perrine,
 F. Plasser,  P. Pokhilko,  S. Prager,  A. Prociuk,  E. Ramos,  B. Rana,
 D. R. Rehn,  F. Rob,  M. Scheurer,  M. Schneider,  N. Sergueev,
 S. M. Sharada,  S. Sharma,  D. W. Small,  T. Stauch,  C. J. Stein,
 T. Stein,  Yu-Chuan Su,  S. P. Veccham,  Zhen Tao,  A. J. W. Thom,
 A. Tkatchenko,  T. Tsuchimochi,  N. M. Tubman,  L. Vogt,  M. L. Vidal,
 O. Vydrov,  M. A. Watson,  J. Wenzel,  M. de Wergifosse,  T. A. Wesolowski,
 A. White,  J. Witte,  A. Yamada,  Jun Yang,  K. Yao,  S. Yeganeh,
 S. R. Yost,  Zhi-Qiang You,  A. Zech,  Igor Ying Zhang,  Xing Zhang,
 Yan Zhao,  Ying Zhu,  B. R. Brooks,  G. K. L. Chan,  C. J. Cramer,
 M. S. Gordon,  W. J. Hehre,  A. Klamt,  M. W. Schmidt,  C. D. Sherrill,
 D. G. Truhlar,  A. Aspuru-Guzik,  R. Baer,  A. T. Bell,  N. A. Besley,
 Jeng-Da Chai,  A. E. DePrince, III,  R. A. DiStasio Jr.,  A. Dreuw,
 B. D. Dunietz,  T. R. Furlani,  Chao-Ping Hsu,  Yousung Jung,  Jing Kong,
 D. S. Lambrecht,  WanZhen Liang,  C. Ochsenfeld,  V. A. Rassolov,
 L. V. Slipchenko,  J. E. Subotnik,  T. Van Voorhis,  J. M. Herbert,
 A. I. Krylov,  P. M. W. Gill,  M. Head-Gordon

 Contributors to earlier versions of Q-Chem not listed above:
 R. D. Adamson,  B. Austin,  J. Baker,  G. J. O. Beran,  K. Brandhorst,
 S. T. Brown,  E. F. C. Byrd,  A. K. Chakraborty,  C.-L. Cheng,
 Siu Hung Chien,  D. M. Chipman,  D. L. Crittenden,  H. Dachsel,
 R. J. Doerksen,  A. D. Dutoi,  L. Fusti-Molnar,  W. A. Goddard III,
 A. Golubeva-Zadorozhnaya,  S. R. Gwaltney,  G. Hawkins,  A. Heyden,
 S. Hirata,  G. Kedziora,  F. J. Keil,  C. Kelley,  Jihan Kim,  R. A. King,
 R. Z. Khaliullin,  P. P. Korambath,  W. Kurlancheek,  A. M. Lee,  M. S. Lee,
 S. V. Levchenko,  Ching Yeh Lin,  D. Liotard,  R. C. Lochan,  I. Lotan,
 P. E. Maslen,  N. Nair,  D. P. O'Neill,  D. Neuhauser,  E. Neuscamman,
 C. M. Oana,  R. Olson,  B. Peters,  R. Peverati,  P. A. Pieniazek,
 Y. M. Rhee,  J. Ritchie,  M. A. Rohrdanz,  E. Rosta,  N. J. Russ,
 H. F. Schaefer III,  N. E. Schultz,  N. Shenvi,  A. C. Simmonett,  A. Sodt,
 D. Stuck,  K. S. Thanthiriwatte,  V. Vanovschi,  Tao Wang,  A. Warshel,
 C. F. Williams,  Q. Wu,  X. Xu,  W. Zhang

 Please cite Q-Chem as follows:
 Y. Shao et al., Mol. Phys. 113, 184-215 (2015)
 DOI: 10.1080/00268976.2014.952696

 Q-Chem 5.2.2 for Intel X86 EM64T Linux

 Parts of Q-Chem use Armadillo 9.800.1 (Horizon Scraper).
 http://arma.sourceforge.net/

 Q-Chem begins on Thu Apr  8 15:22:21 2021

Host: node029
0

     Scratch files written to /home/ymao90/scratch/probe_b3lyp_THF20210408150848//
The previous job contains 0 fragments, simply inherited here
Symmetry turned off for PCM/SM12/SMD calculation

Checking the input file for inconsistencies... 	...done.

--------------------------------------------------------------
User input:
--------------------------------------------------------------

$molecule
read
$end

$rem
JOBTYPE  FREQ
METHOD  B3LYP
BASIS  6-31+G(D)
SYMMETRY  FALSE
SYM_IGNORE  FALSE
MEM_TOTAL  8000
MEM_STATIC  2000
MAX_SUB_FILE_NUM  16000
BASIS_LIN_DEP_THRESH  6
THRESH  14
SCF_CONVERGENCE  8
GEN_SCFMAN  TRUE
SCF_GUESS  READ
FD_MAT_VEC_PROD  FALSE
XC_GRID  000099000590
NL_GRID  1
MAX_SCF_CYCLES  200
ISOTOPES TRUE
SOLVENT_METHOD  PCM
$end

$isotopes
1 0
1
 21 2.0141018
$end

$PCM
THEORY                     CPCM
METHOD                     SWIG
SOLVER                     INVERSION
HPOINTS                    302
HEAVYPOINTS                302
$END

$SOLVENT
DIELECTRIC                 7.43
$END
--------------------------------------------------------------

             Standard Nuclear Orientation (Angstroms)
    I     Atom           X                Y                Z
 ----------------------------------------------------------------
    1      C       0.4832811827    11.8632161851    20.4294292179
    2      C       0.4237662449    10.4395764705    19.8462808048
    3      C       1.5112790981     9.5390517305    20.4583372641
    4      C       1.4278666881     9.5243300330    21.9938649034
    5      C       1.4857117591    10.9445434278    22.5783677833
    6      C       0.4005899093    11.8434965369    21.9648944911
    7      H       1.4125658750     8.5227169148    20.0563435213
    8      H      -0.5593673305    10.0078872002    20.0594602330
    9      H       1.4284969333    12.3337674548    20.1181497927
   10      H      -0.3308954264    12.4649039078    20.0059920842
   11      H       0.4858261906     9.0447445431    22.2994077019
   12      H       2.2404349437     8.9090763720    22.4014838072
   13      H       1.3742772657    10.9086164578    23.6700673451
   14      H       2.4756795236    11.3805844751    22.3749505780
   15      H      -0.5905102399    11.4740777398    22.2683970504
   16      H       0.4868101850    12.8668589510    22.3525480218
   17      H       2.4986028905     9.9146245151    20.1481857026
   18      N       0.5407213556    10.4694034218    18.3848156927
   19      H       1.4149595235    10.8000025928    17.9888617092
   20      C      -0.4224206052    10.1083486400    17.5151343052
   21      H      -0.1079038890    10.2186682986    16.4638084809
   22      O      -1.5497720778     9.6915041315    17.8112195093
 ----------------------------------------------------------------

   11    -404.5998750708      9.78e-09  Convergence criterion met
 Total energy in the final basis set =     -404.5998750708

                    Orbital Energies (a.u.)
 --------------------------------------------------------------

 Alpha MOs
 -- Occupied --
-19.1333 -14.3719 -10.2935 -10.2262 -10.1842 -10.1837 -10.1813 -10.1811
-10.1793  -1.0386  -0.9332  -0.8255  -0.7437  -0.7423  -0.6377  -0.6124
 -0.5928  -0.5644  -0.5270  -0.4842  -0.4614  -0.4431  -0.4384  -0.4193
 -0.4180  -0.3965  -0.3797  -0.3743  -0.3486  -0.3447  -0.3231  -0.3133
 -0.3105  -0.2694  -0.2607

          Ground-State Mulliken Net Atomic Charges

     Atom                 Charge (a.u.)
  ----------------------------------------
      1 C                    -0.268222
      2 C                    -0.442093
      3 C                    -0.285308
      4 C                    -0.448995
      5 C                    -0.382260
      6 C                    -0.451500
      7 H                     0.211593
      8 H                     0.230174
      9 H                     0.211019
     10 H                     0.210966
     11 H                     0.207629
     12 H                     0.202624
     13 H                     0.199222
     14 H                     0.201775
     15 H                     0.207550
     16 H                     0.202613
     17 H                     0.210996
     18 N                    -0.384456
     19 H                     0.444434
     20 C                     0.344198
     21 H                     0.178797
     22 O                    -0.600757
  ----------------------------------------
  Sum of atomic charges =     0.000000

                    Cartesian Multipole Moments
 -----------------------------------------------------------------
    Charge (ESU x 10^10)
                -0.0000
    Dipole Moment (Debye)
         X       5.2404      Y       1.9771      Z       1.1629
       Tot       5.7204
    Quadrupole Moments (Debye-Ang)
        XX     -61.0261     XY      52.3417     YY     -16.8806
        XZ      94.4728     YZ      47.6299     ZZ      -8.5001

 Frequency:       -12.66                  94.98                 190.67
 Force Cnst:      0.0005                 0.0198                 0.0474
 Red. Mass:       4.7904                 3.7189                 2.2114
 IR Intens:       13.628                  9.000                 56.136
 Frequency:       208.45                 227.47                 333.68
 Force Cnst:      0.0908                 0.0544                 0.1238
 Red. Mass:       3.5455                 1.7855                 1.8867
 IR Intens:       11.465                  0.164                  0.123
 Frequency:       397.96                 407.94                 449.38
 Force Cnst:      0.3349                 0.3669                 0.2677
 Red. Mass:       3.5889                 3.7422                 2.2498
 IR Intens:       12.177                 30.660                  0.665
 Frequency:       463.56                 531.96                 593.15
 Force Cnst:      0.4682                 0.2686                 0.2378
 Red. Mass:       3.6983                 1.6108                 1.1473
 IR Intens:       10.671                  2.203                 94.001
 Frequency:       744.66                 799.29                 821.72
 Force Cnst:      1.3696                 0.5421                 0.9722
 Red. Mass:       4.1921                 1.4403                 2.4437
 IR Intens:        5.596                  0.158                  0.817
 Frequency:       849.89                 902.14                 916.88
 Force Cnst:      0.8500                 0.8841                 0.9701
 Red. Mass:       1.9972                 1.8439                 1.9585
 IR Intens:        2.540                 15.343                  1.076
 Frequency:       935.84                 964.65                1025.97
 Force Cnst:      0.7759                 1.2888                 0.9867
 Red. Mass:       1.5037                 2.3506                 1.5910
 IR Intens:        0.526                  6.958                  0.032
 Frequency:      1036.06                1064.05                1070.30
 Force Cnst:      1.1183                 0.9299                 2.4832
 Red. Mass:       1.7682                 1.3939                 3.6792
 IR Intens:        2.579                  2.456                 19.508
 Frequency:      1092.12                1103.56                1174.75
 Force Cnst:      0.8113                 1.7893                 1.8857
 Red. Mass:       1.1545                 2.4937                 2.3191
 IR Intens:        0.013                  1.959                  5.429
 Frequency:      1210.99                1239.66                1275.60
 Force Cnst:      1.2790                 1.6073                 1.2662
 Red. Mass:       1.4802                 1.7752                 1.3208
 IR Intens:        1.446                 67.353                 16.238
 Frequency:      1288.89                1296.75                1342.66
 Force Cnst:      1.2366                 1.3734                 1.3602
 Red. Mass:       1.2634                 1.3862                 1.2807
 IR Intens:        2.739                 10.588                  2.829
 Frequency:      1344.86                1375.18                1383.46
 Force Cnst:      1.3145                 1.5434                 1.5320
 Red. Mass:       1.2335                 1.3852                 1.3586
 IR Intens:       12.988                  1.343                  0.614
 Frequency:      1385.31                1387.81                1404.98
 Force Cnst:      1.6906                 1.6882                 1.7209
 Red. Mass:       1.4952                 1.4877                 1.4796
 IR Intens:        0.023                 10.688                  0.955
 Frequency:      1427.48                1495.20                1497.76
 Force Cnst:      1.4960                 1.4331                 1.4396
 Red. Mass:       1.2461                 1.0880                 1.0892
 IR Intens:       56.766                  0.119                  5.063
 Frequency:      1500.73                1501.76                1514.13
 Force Cnst:      1.4573                 1.4495                 1.4872
 Red. Mass:       1.0982                 1.0908                 1.1010
 IR Intens:        7.434                 11.562                  0.497
 Frequency:      1559.21                1702.89                3013.48
 Force Cnst:      2.6733                 9.8120                 5.7131
 Red. Mass:       1.8663                 5.7429                 1.0678
 IR Intens:      307.079                741.476                 36.094
 Frequency:      3013.73                3017.64                3019.51
 Force Cnst:      5.7186                 5.7369                 5.7067
 Red. Mass:       1.0686                 1.0693                 1.0623
 IR Intens:       34.083                 16.215                 10.131
 Frequency:      3020.96                3026.25                3062.59
 Force Cnst:      5.7021                 5.8583                 6.0459
 Red. Mass:       1.0605                 1.0857                 1.0940
 IR Intens:      135.070                126.621                113.080
 Frequency:      3063.93                3067.63                3069.22
 Force Cnst:      6.0684                 6.0860                 6.0845
 Red. Mass:       1.0971                 1.0977                 1.0963
 IR Intens:      116.386                 77.230                 84.717
 Frequency:      3070.89                3097.48                3581.59
 Force Cnst:      6.1082                 6.1499                 8.1503
 Red. Mass:       1.0993                 1.0879                 1.0784
 IR Intens:       48.597                 51.765                 55.748
 Frequency:       -12.64                  94.32                 170.65
 Force Cnst:      0.0005                 0.0196                 0.0479
 Red. Mass:       4.7994                 3.7394                 2.7912
 IR Intens:       13.604                  8.754                 45.445
 Frequency:       208.14                 227.46                 333.48
 Force Cnst:      0.0915                 0.0544                 0.1243
 Red. Mass:       3.5850                 1.7847                 1.8963
 IR Intens:       10.397                  0.100                  0.108
 Frequency:       393.00                 401.42                 449.20
 Force Cnst:      0.3344                 0.3862                 0.2698
 Red. Mass:       3.6744                 4.0674                 2.2695
 IR Intens:       11.495                 20.816                  0.705
 Frequency:       459.42                 529.42                 583.75
 Force Cnst:      0.4351                 0.2660                 0.2280
 Red. Mass:       3.4985                 1.6109                 1.1355
 IR Intens:        3.061                  1.806                114.936
 Frequency:       735.23                 799.29                 819.64
 Force Cnst:      1.3214                 0.5421                 0.9585
 Red. Mass:       4.1488                 1.4402                 2.4215
 IR Intens:        5.344                  0.157                  0.593
 Frequency:       848.87                 862.48                 902.19
 Force Cnst:      0.8622                 1.7686                 0.8811
 Red. Mass:       2.0310                 4.0355                 1.8372
 IR Intens:        2.985                  0.828                 15.157
 Frequency:       914.51                 935.97                 942.12
 Force Cnst:      1.0092                 0.7775                 1.1797
 Red. Mass:       2.0482                 1.5063                 2.2558
 IR Intens:        1.877                  0.601                  6.221
 Frequency:      1021.74                1036.52                1063.28
 Force Cnst:      1.4189                 1.1415                 0.9390
 Red. Mass:       2.3068                 1.8034                 1.4097
 IR Intens:        6.922                  1.734                  2.170
 Frequency:      1092.06                1103.10                1119.39
 Force Cnst:      0.8046                 1.8223                 2.4376
 Red. Mass:       1.1451                 2.5417                 3.3018
 IR Intens:        0.010                  1.746                 24.391
 Frequency:      1178.90                1210.50                1242.83
 Force Cnst:      2.0717                 1.2783                 1.8745
 Red. Mass:       2.5300                 1.4807                 2.0597
 IR Intens:       17.453                  1.221                 51.079
 Frequency:      1275.10                1288.88                1295.64
 Force Cnst:      1.2612                 1.2367                 1.3573
 Red. Mass:       1.3166                 1.2635                 1.3723
 IR Intens:       13.387                  2.699                  6.634
 Frequency:      1342.31                1344.04                1375.14
 Force Cnst:      1.3387                 1.3180                 1.5431
 Red. Mass:       1.2611                 1.2383                 1.3850
 IR Intens:        5.058                  8.355                  1.297
 Frequency:      1383.38                1385.30                1387.80
 Force Cnst:      1.5321                 1.6895                 1.6875
 Red. Mass:       1.3588                 1.4942                 1.4871
 IR Intens:        0.549                  0.024                 10.498
 Frequency:      1404.48                1495.20                1497.76
 Force Cnst:      1.7093                 1.4331                 1.4396
 Red. Mass:       1.4708                 1.0880                 1.0892
 IR Intens:        0.707                  0.120                  5.157
 Frequency:      1500.73                1501.76                1514.09
 Force Cnst:      1.4573                 1.4494                 1.4874
 Red. Mass:       1.0982                 1.0908                 1.1012
 IR Intens:        7.410                 11.362                  0.695
 Frequency:      1553.09                1680.34                2236.04
 Force Cnst:      2.5042                14.3625                 7.0609
 Red. Mass:       1.7621                 8.6334                 2.3969
 IR Intens:      253.429                834.365                100.475
 Frequency:      3013.48                3013.73                3017.68
 Force Cnst:      5.7131                 5.7185                 5.7366
 Red. Mass:       1.0678                 1.0686                 1.0692
 IR Intens:       36.203                 33.389                 21.855
 Frequency:      3019.51                3020.96                3062.59
 Force Cnst:      5.7067                 5.7021                 6.0458
 Red. Mass:       1.0623                 1.0605                 1.0940
 IR Intens:       10.182                136.092                115.229
 Frequency:      3063.93                3067.63                3069.21
 Force Cnst:      6.0684                 6.0861                 6.0843
 Red. Mass:       1.0971                 1.0977                 1.0962
 IR Intens:      116.391                 76.974                 83.540
 Frequency:      3070.89                3097.44                3581.55
 Force Cnst:      6.1082                 6.1498                 8.1499
 Red. Mass:       1.0993                 1.0879                 1.0783
 IR Intens:       48.553                 54.342                 56.326

 STANDARD THERMODYNAMIC QUANTITIES AT   298.18 K  AND     1.00 ATM

   This Molecule has  1 Imaginary Frequencies
   Zero point vibrational energy:      121.855 kcal/mol

   Atom    1 Element C  Has Mass   12.00000
   Atom    2 Element C  Has Mass   12.00000
   Atom    3 Element C  Has Mass   12.00000
   Atom    4 Element C  Has Mass   12.00000
   Atom    5 Element C  Has Mass   12.00000
   Atom    6 Element C  Has Mass   12.00000
   Atom    7 Element H  Has Mass    1.00783
   Atom    8 Element H  Has Mass    1.00783
   Atom    9 Element H  Has Mass    1.00783
   Atom   10 Element H  Has Mass    1.00783
   Atom   11 Element H  Has Mass    1.00783
   Atom   12 Element H  Has Mass    1.00783
   Atom   13 Element H  Has Mass    1.00783
   Atom   14 Element H  Has Mass    1.00783
   Atom   15 Element H  Has Mass    1.00783
   Atom   16 Element H  Has Mass    1.00783
   Atom   17 Element H  Has Mass    1.00783
   Atom   18 Element N  Has Mass   14.00307
   Atom   19 Element H  Has Mass    1.00783
   Atom   20 Element C  Has Mass   12.00000
   Atom   21 Element H  Has Mass    2.01410
   Atom   22 Element O  Has Mass   15.99491
   Molecular Mass:   128.106042 amu
   Principal axes and moments of inertia in amu*Bohr^2:
                             1           2           3
    Eigenvalues --      538.16322  2028.36367  2229.00680
          X               0.39065    -0.42735     0.81533
          Y               0.16117     0.90378     0.39649
          Z               0.90632     0.02348    -0.42193
   Rotational Symmetry Number is   1
   The Molecule is an Asymmetric Top
   Translational Enthalpy:        0.889 kcal/mol
   Rotational Enthalpy:           0.889 kcal/mol
   Vibrational Enthalpy:        125.140 kcal/mol
   gas constant (RT):             0.593 kcal/mol
   Translational Entropy:        40.457  cal/mol.K
   Rotational Entropy:           29.277  cal/mol.K
   Vibrational Entropy:          18.132  cal/mol.K

   Total Enthalpy:              127.510 kcal/mol
   Total Entropy:                87.866  cal/mol.K

 Total job time:  895.12s(wall), 12282.60s(cpu)
        *  Thank you very much for using Q-Chem.  Have a nice day.  *
