 Q-Chem 5.2 (devel), Q-Chem, Inc., Pleasanton, CA (2019)
 Q-Chem 5.2.2 for Intel X86 EM64T Linux

User input:
--------------------------------------------------------------
$molecule
0 1
C     -2.4083508923    0.9984834764   -2.3662547437
C     -1.5543120384   -0.2118403749   -1.9459885704
C     -2.2384976761   -1.5367925874   -2.3261896725
C     -2.5867463449   -1.5816552836   -3.8234193167
C     -3.4377297730   -0.3731774783   -4.2445934317
C     -2.7551397527    0.9499468362   -3.8636626912
H     -1.5849547626   -2.3750094827   -2.0545927530
H     -0.5831065672   -0.1532425547   -2.4485260558
H     -3.3388117820    1.0024650072   -1.7759883684
H     -1.8720534969    1.9234708349   -2.1213670712
H     -1.6555784977   -1.5918293252   -4.4093866053
H     -3.1102152921   -2.5181807775   -4.0551406051
H     -3.6290653549   -0.4033428377   -5.3251377272
H     -4.4201020066   -0.4306546907   -3.7508934023
H     -1.8320207629    1.0648782183   -4.4511997179
H     -3.3973970401    1.8010825553   -4.1242295555
H     -3.1618885583   -1.6469527918   -1.7346449512
N     -1.2474445251   -0.1731895513   -0.5151412109
H     -2.0131265263   -0.2687147311    0.1418849346
C      0.0000000000    0.0000000000    0.0000000000
H      0.0000000000    0.0000000000    1.1070732462
O      1.0278769477    0.1402881570   -0.6492362509
$end

$rem
JOBTYPE  OPT
METHOD  B3LYP
BASIS  6-31+G(D)
SYMMETRY  FALSE
SYM_IGNORE  TRUE
MEM_TOTAL  8000
MEM_STATIC  2000
MAX_SUB_FILE_NUM  16000
BASIS_LIN_DEP_THRESH  6
THRESH  14
SCF_CONVERGENCE  9
GEN_SCFMAN  TRUE
SCF_GUESS  SAD
FD_MAT_VEC_PROD  FALSE
XC_GRID  000099000590
NL_GRID  1
MAX_SCF_CYCLES  200
GEOM_OPT_TOL_GRADIENT  100
GEOM_OPT_TOL_DISPLACEMENT  100
GEOM_OPT_TOL_ENERGY  10
$end

--------------------------------------------------------------

   16    -404.5870333450      1.40e-10  Convergence criterion met
 Total energy in the final basis set =     -404.5870333450
   10    -404.5870334607      3.34e-10  Convergence criterion met
 Total energy in the final basis set =     -404.5870334607
   10    -404.5870337168      5.18e-10  Convergence criterion met
 Total energy in the final basis set =     -404.5870337168
   10    -404.5870341189      5.23e-10  Convergence criterion met
 Total energy in the final basis set =     -404.5870341189
   13    -404.5870391075      5.90e-10  Convergence criterion met
 Total energy in the final basis set =     -404.5870391075
   12    -404.5870422892      7.33e-10  Convergence criterion met
 Total energy in the final basis set =     -404.5870422892
   13    -404.5870494542      4.59e-10  Convergence criterion met
 Total energy in the final basis set =     -404.5870494542
   11    -404.5870565282      6.60e-10  Convergence criterion met
 Total energy in the final basis set =     -404.5870565282
   12    -404.5870607215      3.54e-10  Convergence criterion met
 Total energy in the final basis set =     -404.5870607215
   11    -404.5870623664      3.73e-10  Convergence criterion met
 Total energy in the final basis set =     -404.5870623664
   11    -404.5870625177      4.59e-10  Convergence criterion met
 Total energy in the final basis set =     -404.5870625177
   10    -404.5870625294      5.71e-10  Convergence criterion met
 Total energy in the final basis set =     -404.5870625294
 Final energy is   -404.587062529362
 **  OPTIMIZATION CONVERGED  **
 Total job time:  544.91s(wall), 8532.38s(cpu)
        *  Thank you very much for using Q-Chem.  Have a nice day.  *

User input: 2 of 2

                  Welcome to Q-Chem
     A Quantum Leap Into The Future Of Chemistry

 Q-Chem 5.2 (devel), Q-Chem, Inc., Pleasanton, CA (2019)

 Yihan Shao,  Zhengting Gan,  E. Epifanovsky,  A. T. B. Gilbert,  M. Wormit,
 J. Kussmann,  A. W. Lange,  A. Behn,  Jia Deng,  Xintian Feng,  D. Ghosh,
 M. Goldey,  P. R. Horn,  L. D. Jacobson,  I. Kaliman,  T. Kus,  A. Landau,
 Jie Liu,  E. I. Proynov,  R. M. Richard,  R. P. Steele,  E. J. Sundstrom,
 H. L. Woodcock III,  P. M. Zimmerman,  D. Zuev,  B. Alam,  B. Albrecht,
 E. Alguire,  S. A. Baeppler,  D. Barton,  Z. Benda,  Y. A. Bernard,
 E. J. Berquist,  K. B. Bravaya,  H. Burton,  K. Carter-Fenk,  D. Casanova,
 Chun-Min Chang,  Yunqing Chen,  A. Chien,  K. D. Closser,  M. P. Coons,
 S. Coriani,  S. Dasgupta,  A. L. Dempwolff,  M. Diedenhofen,  Hainam Do,
 R. G. Edgar,  Po-Tung Fang,  S. Faraji,  S. Fatehi,  Qingguo Feng,
 J. Fosso-Tande,  J. Gayvert,  Qinghui Ge,  A. Ghysels,  G. Gidofalvi,
 J. Gomes,  J. Gonthier,  A. Gunina,  D. Hait,  M. W. D. Hanson-Heine,
 P. H. P. Harbach,  A. W. Hauser,  M. F. Herbst,  J. E. Herr,
 E. G. Hohenstein,  Z. C. Holden,  Kerwin Hui,  B. C. Huynh,  T.-C. Jagau,
 Hyunjun Ji,  B. Kaduk,  K. Khistyaev,  Jaehoon Kim,  P. Klunzinger,  K. Koh,
 D. Kosenkov,  L. Koulias,  T. Kowalczyk,  C. M. Krauter,  A. Kunitsa,
 Ka Un Lao,  A. Laurent,  K. V. Lawler,  Joonho Lee,  D. Lefrancois,
 S. Lehtola,  D. S. Levine,  Yi-Pei Li,  You-Sheng Lin,  Fenglai Liu,
 Kuan-Yu Liu,  E. Livshits,  M. Loipersberger,  A. Luenser,  P. Manohar,
 E. Mansoor,  S. F. Manzer,  Shan-Ping Mao,  Yuezhi Mao,  N. Mardirossian,
 A. V. Marenich,  T. Markovich,  L. A. Martinez-Martinez,  S. A. Maurer,
 N. J. Mayhall,  S. C. McKenzie,  J.-M. Mewes,  P. Morgante,  A. F. Morrison,
 J. W. Mullinax,  K. Nanda,  T. S. Nguyen-Beck,  R. Olivares-Amaya,
 J. A. Parkhill,  S. K. Paul,  F. Pavosevic,  Zheng Pei,  T. M. Perrine,
 F. Plasser,  P. Pokhilko,  S. Prager,  A. Prociuk,  E. Ramos,  B. Rana,
 D. R. Rehn,  F. Rob,  M. Scheurer,  M. Schneider,  N. Sergueev,
 S. M. Sharada,  S. Sharma,  D. W. Small,  T. Stauch,  C. J. Stein,
 T. Stein,  Yu-Chuan Su,  S. P. Veccham,  Zhen Tao,  A. J. W. Thom,
 A. Tkatchenko,  T. Tsuchimochi,  N. M. Tubman,  L. Vogt,  M. L. Vidal,
 O. Vydrov,  M. A. Watson,  J. Wenzel,  M. de Wergifosse,  T. A. Wesolowski,
 A. White,  J. Witte,  A. Yamada,  Jun Yang,  K. Yao,  S. Yeganeh,
 S. R. Yost,  Zhi-Qiang You,  A. Zech,  Igor Ying Zhang,  Xing Zhang,
 Yan Zhao,  Ying Zhu,  B. R. Brooks,  G. K. L. Chan,  C. J. Cramer,
 M. S. Gordon,  W. J. Hehre,  A. Klamt,  M. W. Schmidt,  C. D. Sherrill,
 D. G. Truhlar,  A. Aspuru-Guzik,  R. Baer,  A. T. Bell,  N. A. Besley,
 Jeng-Da Chai,  A. E. DePrince, III,  R. A. DiStasio Jr.,  A. Dreuw,
 B. D. Dunietz,  T. R. Furlani,  Chao-Ping Hsu,  Yousung Jung,  Jing Kong,
 D. S. Lambrecht,  WanZhen Liang,  C. Ochsenfeld,  V. A. Rassolov,
 L. V. Slipchenko,  J. E. Subotnik,  T. Van Voorhis,  J. M. Herbert,
 A. I. Krylov,  P. M. W. Gill,  M. Head-Gordon

 Contributors to earlier versions of Q-Chem not listed above:
 R. D. Adamson,  B. Austin,  J. Baker,  G. J. O. Beran,  K. Brandhorst,
 S. T. Brown,  E. F. C. Byrd,  A. K. Chakraborty,  C.-L. Cheng,
 Siu Hung Chien,  D. M. Chipman,  D. L. Crittenden,  H. Dachsel,
 R. J. Doerksen,  A. D. Dutoi,  L. Fusti-Molnar,  W. A. Goddard III,
 A. Golubeva-Zadorozhnaya,  S. R. Gwaltney,  G. Hawkins,  A. Heyden,
 S. Hirata,  G. Kedziora,  F. J. Keil,  C. Kelley,  Jihan Kim,  R. A. King,
 R. Z. Khaliullin,  P. P. Korambath,  W. Kurlancheek,  A. M. Lee,  M. S. Lee,
 S. V. Levchenko,  Ching Yeh Lin,  D. Liotard,  R. C. Lochan,  I. Lotan,
 P. E. Maslen,  N. Nair,  D. P. O'Neill,  D. Neuhauser,  E. Neuscamman,
 C. M. Oana,  R. Olson,  B. Peters,  R. Peverati,  P. A. Pieniazek,
 Y. M. Rhee,  J. Ritchie,  M. A. Rohrdanz,  E. Rosta,  N. J. Russ,
 H. F. Schaefer III,  N. E. Schultz,  N. Shenvi,  A. C. Simmonett,  A. Sodt,
 D. Stuck,  K. S. Thanthiriwatte,  V. Vanovschi,  Tao Wang,  A. Warshel,
 C. F. Williams,  Q. Wu,  X. Xu,  W. Zhang

 Please cite Q-Chem as follows:
 Y. Shao et al., Mol. Phys. 113, 184-215 (2015)
 DOI: 10.1080/00268976.2014.952696

 Q-Chem 5.2.2 for Intel X86 EM64T Linux

 Parts of Q-Chem use Armadillo 9.800.1 (Horizon Scraper).
 http://arma.sourceforge.net/

 Q-Chem begins on Sun Mar  7 04:35:40 2021

Host: node029
0

     Scratch files written to /home/ymao90/scratch/CCX_CD_zerofield20210307030514//
The previous job contains 0 fragments, simply inherited here

Checking the input file for inconsistencies... 	...done.

--------------------------------------------------------------
User input:
--------------------------------------------------------------

$molecule
read
$end

$rem
JOBTYPE  FREQ
METHOD  B3LYP
BASIS  6-31+G(D)
SYMMETRY  FALSE
SYM_IGNORE  TRUE
MEM_TOTAL  8000
MEM_STATIC  2000
MAX_SUB_FILE_NUM  16000
BASIS_LIN_DEP_THRESH  6
THRESH  14
SCF_CONVERGENCE  9
GEN_SCFMAN  TRUE
SCF_GUESS  READ
FD_MAT_VEC_PROD  FALSE
XC_GRID  000099000590
NL_GRID  1
MAX_SCF_CYCLES  200
ISOTOPES TRUE
$end

$isotopes
1 0
1
 21 2.0141018
$end
--------------------------------------------------------------

             Standard Nuclear Orientation (Angstroms)
    I     Atom           X                Y                Z
 ----------------------------------------------------------------
    1      C      -2.3469891603     0.9662339941    -2.3542245922
    2      C      -1.5392769227    -0.2821053074    -1.9509162771
    3      C      -2.2780300652    -1.5737493978    -2.3364330769
    4      C      -2.6378905610    -1.5906373192    -3.8316550501
    5      C      -3.4390350286    -0.3438039521    -4.2390190943
    6      C      -2.7001122971     0.9464823607    -3.8505224306
    7      H      -1.6587424843    -2.4420196441    -2.0780400972
    8      H      -0.5719465260    -0.2532872661    -2.4645512263
    9      H      -3.2724894753     0.9987871912    -1.7580376857
   10      H      -1.7715865596     1.8649495351    -2.1021826181
   11      H      -1.7116109592    -1.6361897466    -4.4235681368
   12      H      -3.2022098495    -2.5023238868    -4.0665020405
   13      H      -3.6361462287    -0.3585477750    -5.3188558106
   14      H      -4.4207673270    -0.3642371924    -3.7411800610
   15      H      -1.7752825257     1.0281243200    -4.4410106199
   16      H      -3.3073753085     1.8256686446    -4.1015227336
   17      H      -3.2028145117    -1.6516633318    -1.7413092462
   18      N      -1.2218441171    -0.2824499706    -0.5211623016
   19      H      -1.9433365713    -0.5661949593     0.1313554059
   20      C      -0.0450918043     0.1597535682    -0.0015993842
   21      H      -0.0203579300     0.0919941490     1.1032216930
   22      O       0.9042715107     0.5812486049    -0.6489191360
 ----------------------------------------------------------------

    2    -404.5870625282      1.64e-10  Convergence criterion met
 Total energy in the final basis set =     -404.5870625282

                    Orbital Energies (a.u.)
 --------------------------------------------------------------

 Alpha MOs
 -- Occupied --
-19.1270 -14.3742 -10.2913 -10.2329 -10.1973 -10.1935 -10.1910 -10.1906
-10.1904  -1.0381  -0.9351  -0.8346  -0.7532  -0.7506  -0.6436  -0.6238
 -0.5976  -0.5733  -0.5327  -0.4889  -0.4680  -0.4529  -0.4474  -0.4220
 -0.4158  -0.4039  -0.3898  -0.3782  -0.3579  -0.3550  -0.3335  -0.3240
 -0.3184  -0.2635  -0.2593

          Ground-State Mulliken Net Atomic Charges

     Atom                 Charge (a.u.)
  ----------------------------------------
      1 C                    -0.203164
      2 C                    -0.502666
      3 C                    -0.309804
      4 C                    -0.420424
      5 C                    -0.386249
      6 C                    -0.433125
      7 H                     0.212293
      8 H                     0.238263
      9 H                     0.196517
     10 H                     0.216190
     11 H                     0.204544
     12 H                     0.198375
     13 H                     0.196746
     14 H                     0.195811
     15 H                     0.205213
     16 H                     0.198810
     17 H                     0.193480
     18 N                    -0.385466
     19 H                     0.393724
     20 C                     0.327957
     21 H                     0.143011
     22 O                    -0.480038
  ----------------------------------------
  Sum of atomic charges =     0.000000

                    Cartesian Multipole Moments
 -----------------------------------------------------------------
    Charge (ESU x 10^10)
                -0.0000
    Dipole Moment (Debye)
         X      -3.9012      Y      -1.4386      Z       0.2002
       Tot       4.1628
    Quadrupole Moments (Debye-Ang)
        XX     -55.0158     XY      -0.3589     YY     -57.4254
        XZ       3.6532     YZ       1.0878     ZZ     -51.8801

 Frequency:        20.37                 102.61                 174.08
 Force Cnst:      0.0012                 0.0225                 0.0396
 Red. Mass:       4.7265                 3.6193                 2.2205
 IR Intens:        7.156                  5.112                 32.299
 Frequency:       215.59                 229.53                 334.39
 Force Cnst:      0.0862                 0.0568                 0.1265
 Red. Mass:       3.1461                 1.8286                 1.9206
 IR Intens:       12.755                  0.624                  0.193
 Frequency:       379.61                 408.00                 444.22
 Force Cnst:      0.3087                 0.3857                 0.2798
 Red. Mass:       3.6362                 3.9328                 2.4064
 IR Intens:       18.616                 14.470                  0.511
 Frequency:       461.96                 529.53                 538.38
 Force Cnst:      0.3634                 0.2047                 0.2654
 Red. Mass:       2.8903                 1.2388                 1.5541
 IR Intens:        8.741                 29.278                  6.485
 Frequency:       749.60                 800.64                 824.33
 Force Cnst:      1.3329                 0.5480                 1.0067
 Red. Mass:       4.0260                 1.4509                 2.5144
 IR Intens:        3.507                  0.190                  0.985
 Frequency:       851.70                 904.73                 919.03
 Force Cnst:      0.8738                 0.9064                 0.9381
 Red. Mass:       2.0446                 1.8794                 1.8851
 IR Intens:        1.008                  6.885                  0.326
 Frequency:       938.40                 969.20                1015.06
 Force Cnst:      0.7858                 1.3105                 0.9776
 Red. Mass:       1.5146                 2.3678                 1.6104
 IR Intens:        0.595                  4.177                  0.084
 Frequency:      1041.11                1068.72                1076.99
 Force Cnst:      1.1475                 1.0440                 1.8953
 Red. Mass:       1.7968                 1.5514                 2.7733
 IR Intens:        1.461                  1.834                  5.136
 Frequency:      1097.46                1105.10                1176.81
 Force Cnst:      0.8772                 1.6736                 1.7957
 Red. Mass:       1.2362                 2.3260                 2.2008
 IR Intens:        0.097                  1.360                  0.163
 Frequency:      1212.55                1222.97                1282.94
 Force Cnst:      1.4460                 1.4721                 1.3100
 Red. Mass:       1.6692                 1.6705                 1.3508
 IR Intens:       48.729                 35.962                 11.978
 Frequency:      1295.42                1300.05                1342.87
 Force Cnst:      1.2561                 1.2817                 1.3528
 Red. Mass:       1.2704                 1.2871                 1.2733
 IR Intens:        3.969                  2.802                  7.601
 Frequency:      1354.22                1379.65                1387.20
 Force Cnst:      1.3726                 1.5517                 1.5303
 Red. Mass:       1.2703                 1.3836                 1.3498
 IR Intens:        7.211                  0.677                  0.749
 Frequency:      1392.42                1395.18                1411.99
 Force Cnst:      1.7117                 1.6642                 1.7175
 Red. Mass:       1.4985                 1.4511                 1.4621
 IR Intens:        2.240                  5.854                  1.058
 Frequency:      1427.89                1504.86                1508.85
 Force Cnst:      1.4572                 1.4491                 1.4659
 Red. Mass:       1.2130                 1.0861                 1.0929
 IR Intens:        8.919                  0.293                  3.481
 Frequency:      1511.45                1516.10                1528.03
 Force Cnst:      1.4746                 1.4694                 1.5322
 Red. Mass:       1.0956                 1.0850                 1.1138
 IR Intens:        5.513                 13.072                  5.073
 Frequency:      1544.08                1771.77                2972.44
 Force Cnst:      2.4937                13.5474                 5.6508
 Red. Mass:       1.7753                 7.3247                 1.0855
 IR Intens:      190.284                396.242                128.630
 Frequency:      2998.64                3010.81                3013.49
 Force Cnst:      5.6674                 5.7106                 5.7320
 Red. Mass:       1.0698                 1.0692                 1.0713
 IR Intens:       23.846                 24.657                 22.966
 Frequency:      3022.74                3025.04                3065.54
 Force Cnst:      5.7269                 5.7228                 6.0451
 Red. Mass:       1.0638                 1.0614                 1.0918
 IR Intens:       14.973                 53.820                 78.464
 Frequency:      3067.10                3069.49                3071.39
 Force Cnst:      6.0848                 6.0536                 6.1252
 Red. Mass:       1.0978                 1.0905                 1.1021
 IR Intens:       60.986                 14.275                 58.318
 Frequency:      3079.99                3091.71                3590.78
 Force Cnst:      6.0952                 6.1521                 8.1871
 Red. Mass:       1.0905                 1.0924                 1.0777
 IR Intens:       27.925                 34.540                 14.572
 Frequency:        20.36                 101.87                 157.80
 Force Cnst:      0.0012                 0.0222                 0.0398
 Red. Mass:       4.7367                 3.6378                 2.7144
 IR Intens:        7.153                  4.984                 27.942
 Frequency:       212.87                 229.43                 334.20
 Force Cnst:      0.0917                 0.0565                 0.1274
 Red. Mass:       3.4356                 1.8203                 1.9354
 IR Intens:        9.019                  0.416                  0.175
 Frequency:       374.74                 404.08                 443.72
 Force Cnst:      0.3148                 0.3976                 0.2806
 Red. Mass:       3.8052                 4.1329                 2.4188
 IR Intens:       12.525                 12.813                  1.009
 Frequency:       461.29                 513.56                 533.55
 Force Cnst:      0.3617                 0.1790                 0.2786
 Red. Mass:       2.8849                 1.1517                 1.6611
 IR Intens:        5.614                 48.726                  1.372
 Frequency:       740.49                 800.61                 821.96
 Force Cnst:      1.2900                 0.5485                 0.9854
 Red. Mass:       3.9931                 1.4523                 2.4754
 IR Intens:        3.380                  0.190                  0.800
 Frequency:       850.49                 857.25                 904.75
 Force Cnst:      0.8931                 1.7482                 0.9028
 Red. Mass:       2.0956                 4.0377                 1.8719
 IR Intens:        1.111                  0.347                  6.760
 Frequency:       916.56                 937.23                 943.89
 Force Cnst:      0.9903                 0.8129                 1.1108
 Red. Mass:       2.0007                 1.5707                 2.1161
 IR Intens:        0.662                  1.654                  2.481
 Frequency:      1020.64                1041.48                1069.40
 Force Cnst:      1.3940                 1.1636                 0.9417
 Red. Mass:       2.2713                 1.8208                 1.3976
 IR Intens:        1.573                  1.141                  1.089
 Frequency:      1097.41                1104.65                1124.23
 Force Cnst:      0.8682                 1.7031                 2.4394
 Red. Mass:       1.2236                 2.3689                 3.2758
 IR Intens:        0.093                  1.415                 14.163
 Frequency:      1182.54                1217.79                1224.77
 Force Cnst:      2.0424                 1.3550                 1.7913
 Red. Mass:       2.4789                 1.5508                 2.0268
 IR Intens:        6.413                  8.371                 57.907
 Frequency:      1282.45                1295.36                1299.72
 Force Cnst:      1.3069                 1.2546                 1.2763
 Red. Mass:       1.3487                 1.2690                 1.2824
 IR Intens:        9.879                  3.809                  2.153
 Frequency:      1342.16                1353.70                1379.63
 Force Cnst:      1.3398                 1.3690                 1.5516
 Red. Mass:       1.2624                 1.2680                 1.3836
 IR Intens:        6.949                  5.569                  0.655
 Frequency:      1387.16                1392.40                1395.17
 Force Cnst:      1.5296                 1.7116                 1.6645
 Red. Mass:       1.3492                 1.4984                 1.4513
 IR Intens:        0.733                  2.266                  5.902
 Frequency:      1411.34                1504.86                1508.84
 Force Cnst:      1.7072                 1.4491                 1.4658
 Red. Mass:       1.4547                 1.0861                 1.0928
 IR Intens:        0.851                  0.295                  3.733
 Frequency:      1511.45                1516.07                1527.64
 Force Cnst:      1.4746                 1.4710                 1.5577
 Red. Mass:       1.0956                 1.0862                 1.1329
 IR Intens:        5.502                 13.187                 11.409
 Frequency:      1538.71                1750.06                2199.09
 Force Cnst:      2.3081                15.8475                 6.9154
 Red. Mass:       1.6546                 8.7822                 2.4271
 IR Intens:      152.935                427.677                101.236
 Frequency:      2998.63                3010.80                3013.48
 Force Cnst:      5.6674                 5.7107                 5.7320
 Red. Mass:       1.0698                 1.0692                 1.0713
 IR Intens:       22.742                 23.431                 23.127
 Frequency:      3022.74                3025.04                3065.54
 Force Cnst:      5.7269                 5.7228                 6.0451
 Red. Mass:       1.0638                 1.0614                 1.0918
 IR Intens:       14.961                 53.684                 79.579
 Frequency:      3067.10                3069.49                3071.39
 Force Cnst:      6.0848                 6.0536                 6.1252
 Red. Mass:       1.0978                 1.0905                 1.1020
 IR Intens:       60.989                 14.202                 57.843
 Frequency:      3079.98                3091.70                3590.72
 Force Cnst:      6.0951                 6.1521                 8.1866
 Red. Mass:       1.0905                 1.0924                 1.0777
 IR Intens:       28.205                 35.175                 14.758

 STANDARD THERMODYNAMIC QUANTITIES AT   298.18 K  AND     1.00 ATM

   This Molecule has  0 Imaginary Frequencies
   Zero point vibrational energy:      122.008 kcal/mol

   Atom    1 Element C  Has Mass   12.00000
   Atom    2 Element C  Has Mass   12.00000
   Atom    3 Element C  Has Mass   12.00000
   Atom    4 Element C  Has Mass   12.00000
   Atom    5 Element C  Has Mass   12.00000
   Atom    6 Element C  Has Mass   12.00000
   Atom    7 Element H  Has Mass    1.00783
   Atom    8 Element H  Has Mass    1.00783
   Atom    9 Element H  Has Mass    1.00783
   Atom   10 Element H  Has Mass    1.00783
   Atom   11 Element H  Has Mass    1.00783
   Atom   12 Element H  Has Mass    1.00783
   Atom   13 Element H  Has Mass    1.00783
   Atom   14 Element H  Has Mass    1.00783
   Atom   15 Element H  Has Mass    1.00783
   Atom   16 Element H  Has Mass    1.00783
   Atom   17 Element H  Has Mass    1.00783
   Atom   18 Element N  Has Mass   14.00307
   Atom   19 Element H  Has Mass    1.00783
   Atom   20 Element C  Has Mass   12.00000
   Atom   21 Element H  Has Mass    2.01410
   Atom   22 Element O  Has Mass   15.99491
   Molecular Mass:   128.106042 amu
   Principal axes and moments of inertia in amu*Bohr^2:
                             1           2           3
    Eigenvalues --      540.58475  1985.20195  2223.10663
          X               0.64837     0.02924     0.76077
          Y               0.14461     0.97634    -0.16077
          Z               0.74747    -0.21425    -0.62880
   Rotational Symmetry Number is   1
   The Molecule is an Asymmetric Top
   Translational Enthalpy:        0.889 kcal/mol
   Rotational Enthalpy:           0.889 kcal/mol
   Vibrational Enthalpy:        125.888 kcal/mol
   gas constant (RT):             0.593 kcal/mol
   Translational Entropy:        40.457  cal/mol.K
   Rotational Entropy:           29.258  cal/mol.K
   Vibrational Entropy:          24.855  cal/mol.K

   Total Enthalpy:              128.258 kcal/mol
   Total Entropy:                94.569  cal/mol.K

 Total job time:  780.72s(wall), 12278.41s(cpu)
        *  Thank you very much for using Q-Chem.  Have a nice day.  *
