 Q-Chem 5.2 (devel), Q-Chem, Inc., Pleasanton, CA (2019)
 Q-Chem 5.2.2 for Intel X86 EM64T Linux

User input:
--------------------------------------------------------------
$molecule
0 1
C     -2.4083508923    0.9984834764   -2.3662547437
C     -1.5543120384   -0.2118403749   -1.9459885704
C     -2.2384976761   -1.5367925874   -2.3261896725
C     -2.5867463449   -1.5816552836   -3.8234193167
C     -3.4377297730   -0.3731774783   -4.2445934317
C     -2.7551397527    0.9499468362   -3.8636626912
H     -1.5849547626   -2.3750094827   -2.0545927530
H     -0.5831065672   -0.1532425547   -2.4485260558
H     -3.3388117820    1.0024650072   -1.7759883684
H     -1.8720534969    1.9234708349   -2.1213670712
H     -1.6555784977   -1.5918293252   -4.4093866053
H     -3.1102152921   -2.5181807775   -4.0551406051
H     -3.6290653549   -0.4033428377   -5.3251377272
H     -4.4201020066   -0.4306546907   -3.7508934023
H     -1.8320207629    1.0648782183   -4.4511997179
H     -3.3973970401    1.8010825553   -4.1242295555
H     -3.1618885583   -1.6469527918   -1.7346449512
N     -1.2474445251   -0.1731895513   -0.5151412109
H     -2.0131265263   -0.2687147311    0.1418849346
C      0.0000000000    0.0000000000    0.0000000000
H      0.0000000000    0.0000000000    1.1070732462
O      1.0278769477    0.1402881570   -0.6492362509
$end

$rem
JOBTYPE  OPT
METHOD  B3LYP
BASIS  6-31+G(D)
SYMMETRY  FALSE
SYM_IGNORE  TRUE
MEM_TOTAL  8000
MEM_STATIC  2000
MAX_SUB_FILE_NUM  16000
BASIS_LIN_DEP_THRESH  6
THRESH  14
SCF_CONVERGENCE  9
GEN_SCFMAN  TRUE
SCF_GUESS  SAD
FD_MAT_VEC_PROD  FALSE
XC_GRID  000099000590
NL_GRID  1
MAX_SCF_CYCLES  200
GEOM_OPT_TOL_GRADIENT  100
GEOM_OPT_TOL_DISPLACEMENT  100
GEOM_OPT_TOL_ENERGY  10
SOLVENT_METHOD       PCM
$end

$PCM
THEORY                     CPCM
METHOD                     SWIG
SOLVER                     INVERSION
HPOINTS                    302
HEAVYPOINTS                302
$END

$SOLVENT
DIELECTRIC                 6.97
$END

$multipole_field
Z   -0.003890
$end

--------------------------------------------------------------

   15    -404.6011477577      5.37e-10  Convergence criterion met
 Total energy in the final basis set =     -404.6011477577
   13    -404.6015808573      4.70e-10  Convergence criterion met
 Total energy in the final basis set =     -404.6015808573
   13    -404.6016273100      4.55e-10  Convergence criterion met
 Total energy in the final basis set =     -404.6016273100
   13    -404.6016095849      4.50e-10  Convergence criterion met
 Total energy in the final basis set =     -404.6016095849
   13    -404.6016313555      4.50e-10  Convergence criterion met
 Total energy in the final basis set =     -404.6016313555
   13    -404.6016315857      4.52e-10  Convergence criterion met
 Total energy in the final basis set =     -404.6016315857
   13    -404.6016323676      4.54e-10  Convergence criterion met
 Total energy in the final basis set =     -404.6016323676
   13    -404.6016337751      4.57e-10  Convergence criterion met
 **  OPTIMIZATION CONVERGED  **
 Total job time:  943.10s(wall), 13660.97s(cpu)
        *  Thank you very much for using Q-Chem.  Have a nice day.  *

User input: 2 of 2

                  Welcome to Q-Chem
     A Quantum Leap Into The Future Of Chemistry

 Q-Chem 5.2 (devel), Q-Chem, Inc., Pleasanton, CA (2019)

 Yihan Shao,  Zhengting Gan,  E. Epifanovsky,  A. T. B. Gilbert,  M. Wormit,
 J. Kussmann,  A. W. Lange,  A. Behn,  Jia Deng,  Xintian Feng,  D. Ghosh,
 M. Goldey,  P. R. Horn,  L. D. Jacobson,  I. Kaliman,  T. Kus,  A. Landau,
 Jie Liu,  E. I. Proynov,  R. M. Richard,  R. P. Steele,  E. J. Sundstrom,
 H. L. Woodcock III,  P. M. Zimmerman,  D. Zuev,  B. Alam,  B. Albrecht,
 E. Alguire,  S. A. Baeppler,  D. Barton,  Z. Benda,  Y. A. Bernard,
 E. J. Berquist,  K. B. Bravaya,  H. Burton,  K. Carter-Fenk,  D. Casanova,
 Chun-Min Chang,  Yunqing Chen,  A. Chien,  K. D. Closser,  M. P. Coons,
 S. Coriani,  S. Dasgupta,  A. L. Dempwolff,  M. Diedenhofen,  Hainam Do,
 R. G. Edgar,  Po-Tung Fang,  S. Faraji,  S. Fatehi,  Qingguo Feng,
 J. Fosso-Tande,  J. Gayvert,  Qinghui Ge,  A. Ghysels,  G. Gidofalvi,
 J. Gomes,  J. Gonthier,  A. Gunina,  D. Hait,  M. W. D. Hanson-Heine,
 P. H. P. Harbach,  A. W. Hauser,  M. F. Herbst,  J. E. Herr,
 E. G. Hohenstein,  Z. C. Holden,  Kerwin Hui,  B. C. Huynh,  T.-C. Jagau,
 Hyunjun Ji,  B. Kaduk,  K. Khistyaev,  Jaehoon Kim,  P. Klunzinger,  K. Koh,
 D. Kosenkov,  L. Koulias,  T. Kowalczyk,  C. M. Krauter,  A. Kunitsa,
 Ka Un Lao,  A. Laurent,  K. V. Lawler,  Joonho Lee,  D. Lefrancois,
 S. Lehtola,  D. S. Levine,  Yi-Pei Li,  You-Sheng Lin,  Fenglai Liu,
 Kuan-Yu Liu,  E. Livshits,  M. Loipersberger,  A. Luenser,  P. Manohar,
 E. Mansoor,  S. F. Manzer,  Shan-Ping Mao,  Yuezhi Mao,  N. Mardirossian,
 A. V. Marenich,  T. Markovich,  L. A. Martinez-Martinez,  S. A. Maurer,
 N. J. Mayhall,  S. C. McKenzie,  J.-M. Mewes,  P. Morgante,  A. F. Morrison,
 J. W. Mullinax,  K. Nanda,  T. S. Nguyen-Beck,  R. Olivares-Amaya,
 J. A. Parkhill,  S. K. Paul,  F. Pavosevic,  Zheng Pei,  T. M. Perrine,
 F. Plasser,  P. Pokhilko,  S. Prager,  A. Prociuk,  E. Ramos,  B. Rana,
 D. R. Rehn,  F. Rob,  M. Scheurer,  M. Schneider,  N. Sergueev,
 S. M. Sharada,  S. Sharma,  D. W. Small,  T. Stauch,  C. J. Stein,
 T. Stein,  Yu-Chuan Su,  S. P. Veccham,  Zhen Tao,  A. J. W. Thom,
 A. Tkatchenko,  T. Tsuchimochi,  N. M. Tubman,  L. Vogt,  M. L. Vidal,
 O. Vydrov,  M. A. Watson,  J. Wenzel,  M. de Wergifosse,  T. A. Wesolowski,
 A. White,  J. Witte,  A. Yamada,  Jun Yang,  K. Yao,  S. Yeganeh,
 S. R. Yost,  Zhi-Qiang You,  A. Zech,  Igor Ying Zhang,  Xing Zhang,
 Yan Zhao,  Ying Zhu,  B. R. Brooks,  G. K. L. Chan,  C. J. Cramer,
 M. S. Gordon,  W. J. Hehre,  A. Klamt,  M. W. Schmidt,  C. D. Sherrill,
 D. G. Truhlar,  A. Aspuru-Guzik,  R. Baer,  A. T. Bell,  N. A. Besley,
 Jeng-Da Chai,  A. E. DePrince, III,  R. A. DiStasio Jr.,  A. Dreuw,
 B. D. Dunietz,  T. R. Furlani,  Chao-Ping Hsu,  Yousung Jung,  Jing Kong,
 D. S. Lambrecht,  WanZhen Liang,  C. Ochsenfeld,  V. A. Rassolov,
 L. V. Slipchenko,  J. E. Subotnik,  T. Van Voorhis,  J. M. Herbert,
 A. I. Krylov,  P. M. W. Gill,  M. Head-Gordon

 Contributors to earlier versions of Q-Chem not listed above:
 R. D. Adamson,  B. Austin,  J. Baker,  G. J. O. Beran,  K. Brandhorst,
 S. T. Brown,  E. F. C. Byrd,  A. K. Chakraborty,  C.-L. Cheng,
 Siu Hung Chien,  D. M. Chipman,  D. L. Crittenden,  H. Dachsel,
 R. J. Doerksen,  A. D. Dutoi,  L. Fusti-Molnar,  W. A. Goddard III,
 A. Golubeva-Zadorozhnaya,  S. R. Gwaltney,  G. Hawkins,  A. Heyden,
 S. Hirata,  G. Kedziora,  F. J. Keil,  C. Kelley,  Jihan Kim,  R. A. King,
 R. Z. Khaliullin,  P. P. Korambath,  W. Kurlancheek,  A. M. Lee,  M. S. Lee,
 S. V. Levchenko,  Ching Yeh Lin,  D. Liotard,  R. C. Lochan,  I. Lotan,
 P. E. Maslen,  N. Nair,  D. P. O'Neill,  D. Neuhauser,  E. Neuscamman,
 C. M. Oana,  R. Olson,  B. Peters,  R. Peverati,  P. A. Pieniazek,
 Y. M. Rhee,  J. Ritchie,  M. A. Rohrdanz,  E. Rosta,  N. J. Russ,
 H. F. Schaefer III,  N. E. Schultz,  N. Shenvi,  A. C. Simmonett,  A. Sodt,
 D. Stuck,  K. S. Thanthiriwatte,  V. Vanovschi,  Tao Wang,  A. Warshel,
 C. F. Williams,  Q. Wu,  X. Xu,  W. Zhang

 Please cite Q-Chem as follows:
 Y. Shao et al., Mol. Phys. 113, 184-215 (2015)
 DOI: 10.1080/00268976.2014.952696

 Q-Chem 5.2.2 for Intel X86 EM64T Linux

 Parts of Q-Chem use Armadillo 9.800.1 (Horizon Scraper).
 http://arma.sourceforge.net/

 Q-Chem begins on Tue Jul 27 18:03:38 2021

Host: node028
0

     Scratch files written to /home/ymao90/scratch/CCX_CD_+20_MeTHF20210727174753//
The previous job contains 0 fragments, simply inherited here
Symmetry turned off for PCM/SM12/SMD calculation

Checking the input file for inconsistencies... 	...done.

--------------------------------------------------------------
User input:
--------------------------------------------------------------

$molecule
read
$end

$rem
JOBTYPE  FREQ
METHOD  B3LYP
BASIS  6-31+G(D)
SYMMETRY  FALSE
SYM_IGNORE  TRUE
MEM_TOTAL  8000
MEM_STATIC  2000
MAX_SUB_FILE_NUM  16000
BASIS_LIN_DEP_THRESH  6
THRESH  14
SCF_CONVERGENCE  9
GEN_SCFMAN  TRUE
SCF_GUESS  READ
FD_MAT_VEC_PROD  FALSE
XC_GRID  000099000590
IDERIV   1
NL_GRID  1
MAX_SCF_CYCLES  200
ISOTOPES TRUE
SOLVENT_METHOD       PCM
$end

$PCM
THEORY                     CPCM
METHOD                     SWIG
SOLVER                     INVERSION
HPOINTS                    302
HEAVYPOINTS                302
$END

$SOLVENT
DIELECTRIC                 6.97
$END

$isotopes
1 0
1
 21 2.0141018
$end

$multipole_field
Z   -0.003890
$end
--------------------------------------------------------------

 Total energy in the final basis set =     -404.6016353025
   13    -404.6016356419      4.54e-10  Convergence criterion met
 Total energy in the final basis set =     -404.6016356419
   13    -404.6016352993      4.56e-10  Convergence criterion met
 Total energy in the final basis set =     -404.6016352993
   13    -404.6016350138      4.53e-10  Convergence criterion met
 Total energy in the final basis set =     -404.6016350138
   13    -404.6016359777      4.55e-10  Convergence criterion met
 Total energy in the final basis set =     -404.6016359777
   13    -404.6016359447      4.54e-10  Convergence criterion met
 Total energy in the final basis set =     -404.6016359447
   13    -404.6016353171      4.54e-10  Convergence criterion met
 Total energy in the final basis set =     -404.6016353171
   13    -404.6016358113      4.55e-10  Convergence criterion met
 Total energy in the final basis set =     -404.6016358113

                    Orbital Energies (a.u.)
 --------------------------------------------------------------

 Alpha MOs
 -- Occupied --
-19.1382 -14.3770 -10.2968 -10.2397 -10.2091 -10.2084 -10.2081 -10.2015
-10.2003  -1.0433  -0.9393  -0.8467  -0.7642  -0.7621  -0.6530  -0.6341
 -0.6012  -0.5861  -0.5377  -0.4993  -0.4778  -0.4638  -0.4610  -0.4319
 -0.4282  -0.4149  -0.4017  -0.3883  -0.3676  -0.3666  -0.3476  -0.3360
 -0.3312  -0.2744  -0.2686

          Ground-State Mulliken Net Atomic Charges

     Atom                 Charge (a.u.)
  ----------------------------------------
      1 C                    -0.245737
      2 C                    -0.454634
      3 C                    -0.298845
      4 C                    -0.446552
      5 C                    -0.378486
      6 C                    -0.453686
      7 H                     0.217744
      8 H                     0.222742
      9 H                     0.220938
     10 H                     0.215944
     11 H                     0.196169
     12 H                     0.195963
     13 H                     0.176841
     14 H                     0.208157
     15 H                     0.195951
     16 H                     0.195462
     17 H                     0.221225
     18 N                    -0.390026
     19 H                     0.454657
     20 C                     0.347075
     21 H                     0.203941
     22 O                    -0.604845
  ----------------------------------------
  Sum of atomic charges =     0.000000

                    Cartesian Multipole Moments
 -----------------------------------------------------------------
    Charge (ESU x 10^10)
                -0.0000
    Dipole Moment (Debye)
         X      -5.3400      Y      -1.1140      Z       2.0199
       Tot       5.8170
    Quadrupole Moments (Debye-Ang)
        XX     -54.1237     XY       0.1201     YY     -57.1443
        XZ       2.3681     YZ       0.7241     ZZ     -58.0048

             Standard Nuclear Orientation (Angstroms)
    I     Atom           X                Y                Z
 ----------------------------------------------------------------
    1      C      -2.4125284646     0.9832107892    -2.3453049223
    2      C      -1.5703500076    -0.2387083995    -1.9345037645
    3      C      -2.2771399213    -1.5506840424    -2.3140133530
    4      C      -2.5955990943    -1.5858271612    -3.8186639423
    5      C      -3.4176400382    -0.3620226855    -4.2564762477
    6      C      -2.7297035319     0.9517768076    -3.8498461116
    7      H      -1.6448461321    -2.4025146322    -2.0348868669
    8      H      -0.6099135829    -0.1923854654    -2.4589534109
    9      H      -3.3489674407     0.9825993906    -1.7683916015
   10      H      -1.8743150807     1.9024399353    -2.0835344089
   11      H      -1.6503747872    -1.6080330255    -4.3837192414
   12      H      -3.1312613225    -2.5128654906    -4.0632905836
   13      H      -3.5794004513    -0.3844384796    -5.3442236423
   14      H      -4.4115445184    -0.4086650521    -3.7871048068
   15      H      -1.7911898618     1.0601669803    -4.4162254505
   16      H      -3.3597379730     1.8113054360    -4.1156430632
   17      H      -3.2095040916    -1.6386458122    -1.7367477530
   18      N      -1.2376305098    -0.2084801012    -0.5110515894
   19      H      -1.9796143165    -0.3586554443     0.1657245776
   20      C      -0.0045831453     0.0530324352    -0.0290322443
   21      H       0.0405333935     0.0409512536     1.0709387846
   22      O       0.9966461757     0.2824753822    -0.7216848781
 ----------------------------------------------------------------

 Frequency:        16.74                 102.64                 197.36
 Force Cnst:      0.0008                 0.0222                 0.0530
 Red. Mass:       4.7589                 3.5833                 2.3081
 IR Intens:       12.782                  7.428                 55.705
 Frequency:       219.04                 229.50                 333.34
 Force Cnst:      0.0912                 0.0564                 0.1251
 Red. Mass:       3.2264                 1.8183                 1.9115
 IR Intens:       15.999                  0.598                  0.218
 Frequency:       395.65                 410.05                 450.65
 Force Cnst:      0.3361                 0.3744                 0.2859
 Red. Mass:       3.6437                 3.7790                 2.3897
 IR Intens:       18.258                 30.232                  1.082
 Frequency:       464.75                 532.46                 583.99
 Force Cnst:      0.4110                 0.2732                 0.2303
 Red. Mass:       3.2294                 1.6355                 1.1463
 IR Intens:       11.684                  2.891                 90.867
 Frequency:       745.55                 800.10                 822.57
 Force Cnst:      1.3422                 0.5440                 0.9974
 Red. Mass:       4.0985                 1.4425                 2.5020
 IR Intens:        7.606                  0.237                  0.715
 Frequency:       848.30                 901.49                 918.68
 Force Cnst:      0.8340                 0.8982                 0.9592
 Red. Mass:       1.9671                 1.8759                 1.9291
 IR Intens:        2.860                 13.740                  1.059
 Frequency:       934.03                 967.48                1032.33
 Force Cnst:      0.7642                 1.2938                 0.9987
 Red. Mass:       1.4867                 2.3461                 1.5906
 IR Intens:        1.037                  8.104                  0.100
 Frequency:      1035.79                1063.28                1081.75
 Force Cnst:      1.1125                 0.9205                 2.5845
 Red. Mass:       1.7600                 1.3819                 3.7487
 IR Intens:        1.497                  3.135                 15.952
 Frequency:      1090.41                1101.76                1175.11
 Force Cnst:      0.7796                 1.9000                 1.8798
 Red. Mass:       1.1128                 2.6566                 2.3105
 IR Intens:        0.069                  2.266                  3.279
 Frequency:      1209.23                1235.61                1276.00
 Force Cnst:      1.2960                 1.6477                 1.2640
 Red. Mass:       1.5044                 1.8318                 1.3176
 IR Intens:        1.637                 81.812                 18.165
 Frequency:      1288.26                1294.13                1341.89
 Force Cnst:      1.2381                 1.3433                 1.3588
 Red. Mass:       1.2662                 1.3613                 1.2807
 IR Intens:        2.175                  8.069                  4.194
 Frequency:      1349.11                1373.18                1382.57
 Force Cnst:      1.3313                 1.5438                 1.5992
 Red. Mass:       1.2415                 1.3896                 1.4200
 IR Intens:       16.845                  1.868                  0.109
 Frequency:      1385.45                1387.43                1407.94
 Force Cnst:      1.6809                 1.6134                 1.7330
 Red. Mass:       1.4863                 1.4225                 1.4838
 IR Intens:        7.099                  2.255                  1.058
 Frequency:      1421.60                1495.35                1496.58
 Force Cnst:      1.4955                 1.4336                 1.4359
 Red. Mass:       1.2559                 1.0881                 1.0881
 IR Intens:       60.862                  0.342                  4.119
 Frequency:      1500.48                1502.05                1514.29
 Force Cnst:      1.4564                 1.4530                 1.4880
 Red. Mass:       1.0979                 1.0930                 1.1014
 IR Intens:        7.575                 10.670                  0.575
 Frequency:      1556.02                1694.89                3003.13
 Force Cnst:      2.6552                 9.4197                 5.6677
 Red. Mass:       1.8613                 5.5655                 1.0666
 IR Intens:      317.614                673.279                 64.644
 Frequency:      3003.77                3011.70                3025.58
 Force Cnst:      5.6711                 5.6835                 5.7423
 Red. Mass:       1.0668                 1.0635                 1.0647
 IR Intens:       43.965                 74.653                  8.686
 Frequency:      3028.54                3044.46                3053.82
 Force Cnst:      5.7612                 5.9927                 6.0182
 Red. Mass:       1.0661                 1.0974                 1.0953
 IR Intens:       50.783                125.433                120.065
 Frequency:      3056.02                3059.02                3072.46
 Force Cnst:      5.9913                 6.0455                 6.0581
 Red. Mass:       1.0888                 1.0965                 1.0892
 IR Intens:       66.217                160.436                 17.160
 Frequency:      3078.62                3091.23                3580.33
 Force Cnst:      6.1429                 6.1545                 8.1482
 Red. Mass:       1.1000                 1.0931                 1.0789
 IR Intens:       54.889                 77.572                 71.046
 Frequency:        16.71                 101.95                 177.61
 Force Cnst:      0.0008                 0.0221                 0.0523
 Red. Mass:       4.7622                 3.6032                 2.8117
 IR Intens:       12.809                  7.229                 48.714
 Frequency:       217.53                 229.45                 333.17
 Force Cnst:      0.0958                 0.0563                 0.1256
 Red. Mass:       3.4369                 1.8136                 1.9202
 IR Intens:       10.910                  0.407                  0.194
 Frequency:       389.99                 404.30                 449.97
 Force Cnst:      0.3397                 0.3929                 0.2964
 Red. Mass:       3.7904                 4.0791                 2.4847
 IR Intens:       15.164                 21.621                  0.718
 Frequency:       461.27                 529.78                 574.01
 Force Cnst:      0.3741                 0.2702                 0.2197
 Red. Mass:       2.9845                 1.6341                 1.1317
 IR Intens:        3.669                  2.268                113.679
 Frequency:       736.33                 800.09                 820.41
 Force Cnst:      1.2991                 0.5441                 0.9796
 Red. Mass:       4.0667                 1.4426                 2.4701
 IR Intens:        7.365                  0.233                  0.534
 Frequency:       847.35                 867.59                 901.51
 Force Cnst:      0.8470                 1.7857                 0.8959
 Red. Mass:       2.0023                 4.0265                 1.8711
 IR Intens:        3.293                  0.684                 13.604
 Frequency:       916.83                 934.01                 944.31
 Force Cnst:      0.9793                 0.7648                 1.2144
 Red. Mass:       1.9774                 1.4880                 2.3115
 IR Intens:        1.606                  1.229                  8.177
 Frequency:      1020.29                1036.36                1062.48
 Force Cnst:      1.3826                 1.1399                 0.9320
 Red. Mass:       2.2543                 1.8013                 1.4013
 IR Intens:        4.209                  1.145                  2.875
 Frequency:      1090.32                1101.30                1127.16
 Force Cnst:      0.7733                 1.9383                 2.5746
 Red. Mass:       1.1040                 2.7125                 3.4394
 IR Intens:        0.077                  1.987                 24.926
 Frequency:      1179.24                1209.01                1239.06
 Force Cnst:      2.0782                 1.3007                 1.9212
 Red. Mass:       2.5365                 1.5103                 2.1239
 IR Intens:       15.299                  1.005                 61.533
 Frequency:      1275.65                1288.25                1293.23
 Force Cnst:      1.2612                 1.2383                 1.3287
 Red. Mass:       1.3155                 1.2664                 1.3484
 IR Intens:       15.431                  2.117                  4.477
 Frequency:      1341.61                1348.30                1373.15
 Force Cnst:      1.3502                 1.3223                 1.5436
 Red. Mass:       1.2732                 1.2345                 1.3895
 IR Intens:        4.507                 14.140                  1.798
 Frequency:      1382.57                1385.43                1387.37
 Force Cnst:      1.5983                 1.6799                 1.6137
 Red. Mass:       1.4192                 1.4855                 1.4229
 IR Intens:        0.105                  6.846                  2.220
 Frequency:      1407.30                1495.35                1496.58
 Force Cnst:      1.7180                 1.4336                 1.4359
 Red. Mass:       1.4723                 1.0881                 1.0881
 IR Intens:        0.935                  0.352                  4.155
 Frequency:      1500.48                1502.05                1514.25
 Force Cnst:      1.4564                 1.4530                 1.4883
 Red. Mass:       1.0979                 1.0930                 1.1017
 IR Intens:        7.536                 10.530                  0.819
 Frequency:      1550.41                1670.44                2261.21
 Force Cnst:      2.4972                13.5892                 7.2607
 Red. Mass:       1.7633                 8.2658                 2.4102
 IR Intens:      270.499                766.820                 69.615
 Frequency:      3003.13                3003.77                3011.70
 Force Cnst:      5.6677                 5.6711                 5.6835
 Red. Mass:       1.0666                 1.0668                 1.0635
 IR Intens:       64.531                 43.947                 74.252
 Frequency:      3025.58                3028.54                3044.47
 Force Cnst:      5.7423                 5.7612                 5.9928
 Red. Mass:       1.0647                 1.0661                 1.0974
 IR Intens:        8.818                 52.329                121.665
 Frequency:      3053.82                3058.96                3072.39
 Force Cnst:      6.0182                 6.0469                 6.0573
 Red. Mass:       1.0953                 1.0968                 1.0891
 IR Intens:      120.103                153.518                 18.947
 Frequency:      3078.62                3091.18                3580.29
 Force Cnst:      6.1429                 6.1547                 8.1478
 Red. Mass:       1.1000                 1.0932                 1.0788
 IR Intens:       54.876                 81.001                 71.646

 STANDARD THERMODYNAMIC QUANTITIES AT   298.18 K  AND     1.00 ATM

   This Molecule has  0 Imaginary Frequencies
   Zero point vibrational energy:      121.864 kcal/mol

   Atom    1 Element C  Has Mass   12.00000
   Atom    2 Element C  Has Mass   12.00000
   Atom    3 Element C  Has Mass   12.00000
   Atom    4 Element C  Has Mass   12.00000
   Atom    5 Element C  Has Mass   12.00000
   Atom    6 Element C  Has Mass   12.00000
   Atom    7 Element H  Has Mass    1.00783
   Atom    8 Element H  Has Mass    1.00783
   Atom    9 Element H  Has Mass    1.00783
   Atom   10 Element H  Has Mass    1.00783
   Atom   11 Element H  Has Mass    1.00783
   Atom   12 Element H  Has Mass    1.00783
   Atom   13 Element H  Has Mass    1.00783
   Atom   14 Element H  Has Mass    1.00783
   Atom   15 Element H  Has Mass    1.00783
   Atom   16 Element H  Has Mass    1.00783
   Atom   17 Element H  Has Mass    1.00783
   Atom   18 Element N  Has Mass   14.00307
   Atom   19 Element H  Has Mass    1.00783
   Atom   20 Element C  Has Mass   12.00000
   Atom   21 Element H  Has Mass    2.01410
   Atom   22 Element O  Has Mass   15.99491
   Molecular Mass:   128.106042 amu
   Principal axes and moments of inertia in amu*Bohr^2:
                             1           2           3
    Eigenvalues --      547.39729  1993.34284  2193.32233
          X               0.66074    -0.01329     0.75050
          Y               0.10194     0.99217    -0.07218
          Z               0.74366    -0.12420    -0.65692
   Rotational Symmetry Number is   1
   The Molecule is an Asymmetric Top
   Translational Enthalpy:        0.889 kcal/mol
   Rotational Enthalpy:           0.889 kcal/mol
   Vibrational Enthalpy:        125.693 kcal/mol
   gas constant (RT):             0.593 kcal/mol
   Translational Entropy:        40.457  cal/mol.K
   Rotational Entropy:           29.261  cal/mol.K
   Vibrational Entropy:          24.808  cal/mol.K

   Total Enthalpy:              128.063 kcal/mol
   Total Entropy:                94.525  cal/mol.K

 Total job time:  10678.15s(wall), 151242.24s(cpu)
        *  Thank you very much for using Q-Chem.  Have a nice day.  *
