 Q-Chem 5.2 (devel), Q-Chem, Inc., Pleasanton, CA (2019)
 Q-Chem 5.2.2 for Intel X86 EM64T Linux

User input:
--------------------------------------------------------------
$molecule
0 1
C     -2.4083508923    0.9984834764   -2.3662547437
C     -1.5543120384   -0.2118403749   -1.9459885704
C     -2.2384976761   -1.5367925874   -2.3261896725
C     -2.5867463449   -1.5816552836   -3.8234193167
C     -3.4377297730   -0.3731774783   -4.2445934317
C     -2.7551397527    0.9499468362   -3.8636626912
H     -1.5849547626   -2.3750094827   -2.0545927530
H     -0.5831065672   -0.1532425547   -2.4485260558
H     -3.3388117820    1.0024650072   -1.7759883684
H     -1.8720534969    1.9234708349   -2.1213670712
H     -1.6555784977   -1.5918293252   -4.4093866053
H     -3.1102152921   -2.5181807775   -4.0551406051
H     -3.6290653549   -0.4033428377   -5.3251377272
H     -4.4201020066   -0.4306546907   -3.7508934023
H     -1.8320207629    1.0648782183   -4.4511997179
H     -3.3973970401    1.8010825553   -4.1242295555
H     -3.1618885583   -1.6469527918   -1.7346449512
N     -1.2474445251   -0.1731895513   -0.5151412109
H     -2.0131265263   -0.2687147311    0.1418849346
C      0.0000000000    0.0000000000    0.0000000000
H      0.0000000000    0.0000000000    1.1070732462
O      1.0278769477    0.1402881570   -0.6492362509
$end

$rem
JOBTYPE  OPT
METHOD  B3LYP
BASIS  6-31+G(D)
SYMMETRY  FALSE
SYM_IGNORE  TRUE
MEM_TOTAL  8000
MEM_STATIC  2000
MAX_SUB_FILE_NUM  16000
BASIS_LIN_DEP_THRESH  6
THRESH  14
SCF_CONVERGENCE  9
GEN_SCFMAN  TRUE
SCF_GUESS  SAD
FD_MAT_VEC_PROD  FALSE
XC_GRID  000099000590
NL_GRID  1
MAX_SCF_CYCLES  200
GEOM_OPT_TOL_GRADIENT  100
GEOM_OPT_TOL_DISPLACEMENT  100
GEOM_OPT_TOL_ENERGY  10
SOLVENT_METHOD       PCM
$end

$PCM
THEORY                     CPCM
METHOD                     SWIG
SOLVER                     INVERSION
HPOINTS                    302
HEAVYPOINTS                302
$END

$SOLVENT
DIELECTRIC                 6.97
$END

--------------------------------------------------------------

   15    -404.5992869477      5.51e-10  Convergence criterion met
 Total energy in the final basis set =     -404.5992869477
   13    -404.5996592668      3.52e-10  Convergence criterion met
 Total energy in the final basis set =     -404.5996592668
   13    -404.5997053317      3.59e-10  Convergence criterion met
 Total energy in the final basis set =     -404.5997053317
   13    -404.5996932181      3.61e-10  Convergence criterion met
 Total energy in the final basis set =     -404.5996932181
   13    -404.5997081642      3.60e-10  Convergence criterion met
 Total energy in the final basis set =     -404.5997081642
   13    -404.5997083351      3.60e-10  Convergence criterion met
 Total energy in the final basis set =     -404.5997083351
   13    -404.5997088750      3.64e-10  Convergence criterion met
 Total energy in the final basis set =     -404.5997088750
   13    -404.5997094193      3.68e-10  Convergence criterion met
 Total energy in the final basis set =     -404.5997094193
   13    -404.5997099367      3.73e-10  Convergence criterion met
 Total energy in the final basis set =     -404.5997099367
   13    -404.5997101123      3.70e-10  Convergence criterion met
 Total energy in the final basis set =     -404.5997101123
   13    -404.5997101402      3.69e-10  Convergence criterion met
 Total energy in the final basis set =     -404.5997101402
 Final energy is   -404.599710140155
 **  OPTIMIZATION CONVERGED  **
 Total job time:  761.31s(wall), 10923.93s(cpu)
        *  Thank you very much for using Q-Chem.  Have a nice day.  *

User input: 2 of 2

                  Welcome to Q-Chem
     A Quantum Leap Into The Future Of Chemistry

 Q-Chem 5.2 (devel), Q-Chem, Inc., Pleasanton, CA (2019)

 Yihan Shao,  Zhengting Gan,  E. Epifanovsky,  A. T. B. Gilbert,  M. Wormit,
 J. Kussmann,  A. W. Lange,  A. Behn,  Jia Deng,  Xintian Feng,  D. Ghosh,
 M. Goldey,  P. R. Horn,  L. D. Jacobson,  I. Kaliman,  T. Kus,  A. Landau,
 Jie Liu,  E. I. Proynov,  R. M. Richard,  R. P. Steele,  E. J. Sundstrom,
 H. L. Woodcock III,  P. M. Zimmerman,  D. Zuev,  B. Alam,  B. Albrecht,
 E. Alguire,  S. A. Baeppler,  D. Barton,  Z. Benda,  Y. A. Bernard,
 E. J. Berquist,  K. B. Bravaya,  H. Burton,  K. Carter-Fenk,  D. Casanova,
 Chun-Min Chang,  Yunqing Chen,  A. Chien,  K. D. Closser,  M. P. Coons,
 S. Coriani,  S. Dasgupta,  A. L. Dempwolff,  M. Diedenhofen,  Hainam Do,
 R. G. Edgar,  Po-Tung Fang,  S. Faraji,  S. Fatehi,  Qingguo Feng,
 J. Fosso-Tande,  J. Gayvert,  Qinghui Ge,  A. Ghysels,  G. Gidofalvi,
 J. Gomes,  J. Gonthier,  A. Gunina,  D. Hait,  M. W. D. Hanson-Heine,
 P. H. P. Harbach,  A. W. Hauser,  M. F. Herbst,  J. E. Herr,
 E. G. Hohenstein,  Z. C. Holden,  Kerwin Hui,  B. C. Huynh,  T.-C. Jagau,
 Hyunjun Ji,  B. Kaduk,  K. Khistyaev,  Jaehoon Kim,  P. Klunzinger,  K. Koh,
 D. Kosenkov,  L. Koulias,  T. Kowalczyk,  C. M. Krauter,  A. Kunitsa,
 Ka Un Lao,  A. Laurent,  K. V. Lawler,  Joonho Lee,  D. Lefrancois,
 S. Lehtola,  D. S. Levine,  Yi-Pei Li,  You-Sheng Lin,  Fenglai Liu,
 Kuan-Yu Liu,  E. Livshits,  M. Loipersberger,  A. Luenser,  P. Manohar,
 E. Mansoor,  S. F. Manzer,  Shan-Ping Mao,  Yuezhi Mao,  N. Mardirossian,
 A. V. Marenich,  T. Markovich,  L. A. Martinez-Martinez,  S. A. Maurer,
 N. J. Mayhall,  S. C. McKenzie,  J.-M. Mewes,  P. Morgante,  A. F. Morrison,
 J. W. Mullinax,  K. Nanda,  T. S. Nguyen-Beck,  R. Olivares-Amaya,
 J. A. Parkhill,  S. K. Paul,  F. Pavosevic,  Zheng Pei,  T. M. Perrine,
 F. Plasser,  P. Pokhilko,  S. Prager,  A. Prociuk,  E. Ramos,  B. Rana,
 D. R. Rehn,  F. Rob,  M. Scheurer,  M. Schneider,  N. Sergueev,
 S. M. Sharada,  S. Sharma,  D. W. Small,  T. Stauch,  C. J. Stein,
 T. Stein,  Yu-Chuan Su,  S. P. Veccham,  Zhen Tao,  A. J. W. Thom,
 A. Tkatchenko,  T. Tsuchimochi,  N. M. Tubman,  L. Vogt,  M. L. Vidal,
 O. Vydrov,  M. A. Watson,  J. Wenzel,  M. de Wergifosse,  T. A. Wesolowski,
 A. White,  J. Witte,  A. Yamada,  Jun Yang,  K. Yao,  S. Yeganeh,
 S. R. Yost,  Zhi-Qiang You,  A. Zech,  Igor Ying Zhang,  Xing Zhang,
 Yan Zhao,  Ying Zhu,  B. R. Brooks,  G. K. L. Chan,  C. J. Cramer,
 M. S. Gordon,  W. J. Hehre,  A. Klamt,  M. W. Schmidt,  C. D. Sherrill,
 D. G. Truhlar,  A. Aspuru-Guzik,  R. Baer,  A. T. Bell,  N. A. Besley,
 Jeng-Da Chai,  A. E. DePrince, III,  R. A. DiStasio Jr.,  A. Dreuw,
 B. D. Dunietz,  T. R. Furlani,  Chao-Ping Hsu,  Yousung Jung,  Jing Kong,
 D. S. Lambrecht,  WanZhen Liang,  C. Ochsenfeld,  V. A. Rassolov,
 L. V. Slipchenko,  J. E. Subotnik,  T. Van Voorhis,  J. M. Herbert,
 A. I. Krylov,  P. M. W. Gill,  M. Head-Gordon

 Contributors to earlier versions of Q-Chem not listed above:
 R. D. Adamson,  B. Austin,  J. Baker,  G. J. O. Beran,  K. Brandhorst,
 S. T. Brown,  E. F. C. Byrd,  A. K. Chakraborty,  C.-L. Cheng,
 Siu Hung Chien,  D. M. Chipman,  D. L. Crittenden,  H. Dachsel,
 R. J. Doerksen,  A. D. Dutoi,  L. Fusti-Molnar,  W. A. Goddard III,
 A. Golubeva-Zadorozhnaya,  S. R. Gwaltney,  G. Hawkins,  A. Heyden,
 S. Hirata,  G. Kedziora,  F. J. Keil,  C. Kelley,  Jihan Kim,  R. A. King,
 R. Z. Khaliullin,  P. P. Korambath,  W. Kurlancheek,  A. M. Lee,  M. S. Lee,
 S. V. Levchenko,  Ching Yeh Lin,  D. Liotard,  R. C. Lochan,  I. Lotan,
 P. E. Maslen,  N. Nair,  D. P. O'Neill,  D. Neuhauser,  E. Neuscamman,
 C. M. Oana,  R. Olson,  B. Peters,  R. Peverati,  P. A. Pieniazek,
 Y. M. Rhee,  J. Ritchie,  M. A. Rohrdanz,  E. Rosta,  N. J. Russ,
 H. F. Schaefer III,  N. E. Schultz,  N. Shenvi,  A. C. Simmonett,  A. Sodt,
 D. Stuck,  K. S. Thanthiriwatte,  V. Vanovschi,  Tao Wang,  A. Warshel,
 C. F. Williams,  Q. Wu,  X. Xu,  W. Zhang

 Please cite Q-Chem as follows:
 Y. Shao et al., Mol. Phys. 113, 184-215 (2015)
 DOI: 10.1080/00268976.2014.952696

 Q-Chem 5.2.2 for Intel X86 EM64T Linux

 Parts of Q-Chem use Armadillo 9.800.1 (Horizon Scraper).
 http://arma.sourceforge.net/

 Q-Chem begins on Tue Jul 27 18:00:36 2021

Host: node024
0

     Scratch files written to /home/ymao90/scratch/CCX_CD_0_MeTHF20210727174754//
The previous job contains 0 fragments, simply inherited here
Symmetry turned off for PCM/SM12/SMD calculation

Checking the input file for inconsistencies... 	...done.

--------------------------------------------------------------
User input:
--------------------------------------------------------------

$molecule
read
$end

$rem
JOBTYPE  FREQ
METHOD  B3LYP
BASIS  6-31+G(D)
SYMMETRY  FALSE
SYM_IGNORE  TRUE
MEM_TOTAL  8000
MEM_STATIC  2000
MAX_SUB_FILE_NUM  16000
BASIS_LIN_DEP_THRESH  6
THRESH  14
SCF_CONVERGENCE  9
GEN_SCFMAN  TRUE
SCF_GUESS  READ
FD_MAT_VEC_PROD  FALSE
XC_GRID  000099000590
NL_GRID  1
MAX_SCF_CYCLES  200
ISOTOPES TRUE
SOLVENT_METHOD       PCM
$end

$PCM
THEORY                     CPCM
METHOD                     SWIG
SOLVER                     INVERSION
HPOINTS                    302
HEAVYPOINTS                302
$END

$SOLVENT
DIELECTRIC                 6.97
$END

$isotopes
1 0
1
 21 2.0141018
$end
--------------------------------------------------------------

             Standard Nuclear Orientation (Angstroms)
    I     Atom           X                Y                Z
 ----------------------------------------------------------------
    1      C      -2.3885945543     0.9922966476    -2.3676001107
    2      C      -1.5405231667    -0.2260234716    -1.9581193323
    3      C      -2.2393080484    -1.5446507396    -2.3322727414
    4      C      -2.5997481001    -1.5833116620    -3.8268100504
    5      C      -3.4450712391    -0.3674910718    -4.2381968392
    6      C      -2.7465493599     0.9488641020    -3.8624826252
    7      H      -1.5900956922    -2.3895685110    -2.0697291841
    8      H      -0.5743378591    -0.1752728436    -2.4704264510
    9      H      -3.3118142553     0.9976524021    -1.7682057319
   10      H      -1.8428696107     1.9134224906    -2.1270107724
   11      H      -1.6736712646    -1.5986091482    -4.4208776575
   12      H      -3.1338020174    -2.5152304517    -4.0531827649
   13      H      -3.6456960810    -0.3947569529    -5.3173294925
   14      H      -4.4217006973    -0.4169396833    -3.7329070054
   15      H      -1.8267757851     1.0539729116    -4.4573252668
   16      H      -3.3838196639     1.8062755391    -4.1149017882
   17      H      -3.1566521131    -1.6432818893    -1.7314383774
   18      N      -1.2368402271    -0.1949292977    -0.5237215301
   19      H      -2.0066312017    -0.3283297198     0.1243150964
   20      C      -0.0220845783     0.0312641749     0.0129485170
   21      H      -0.0359129280     0.0170911316     1.1157238455
   22      O       1.0238337409     0.2335886613    -0.6170842577
 ----------------------------------------------------------------

   13    -404.5997101390      3.69e-10  Convergence criterion met
 Total energy in the final basis set =     -404.5997101390

                    Orbital Energies (a.u.)
 --------------------------------------------------------------

 Alpha MOs
 -- Occupied --
-19.1333 -14.3719 -10.2934 -10.2263 -10.1846 -10.1836 -10.1816 -10.1811
-10.1795  -1.0386  -0.9332  -0.8256  -0.7438  -0.7424  -0.6377  -0.6127
 -0.5927  -0.5645  -0.5271  -0.4842  -0.4616  -0.4433  -0.4385  -0.4199
 -0.4175  -0.3966  -0.3799  -0.3743  -0.3487  -0.3448  -0.3232  -0.3135
 -0.3105  -0.2694  -0.2607

          Ground-State Mulliken Net Atomic Charges

     Atom                 Charge (a.u.)
  ----------------------------------------
      1 C                    -0.258944
      2 C                    -0.440159
      3 C                    -0.295207
      4 C                    -0.447172
      5 C                    -0.382366
      6 C                    -0.453231
      7 H                     0.212023
      8 H                     0.230187
      9 H                     0.210840
     10 H                     0.210780
     11 H                     0.207662
     12 H                     0.202619
     13 H                     0.199213
     14 H                     0.201662
     15 H                     0.207552
     16 H                     0.202545
     17 H                     0.210680
     18 N                    -0.385874
     19 H                     0.443620
     20 C                     0.343664
     21 H                     0.178338
     22 O                    -0.598435
  ----------------------------------------
  Sum of atomic charges =     0.000000

                    Cartesian Multipole Moments
 -----------------------------------------------------------------
    Charge (ESU x 10^10)
                -0.0000
    Dipole Moment (Debye)
         X      -5.5860      Y      -0.9990      Z       0.4947
       Tot       5.6962
    Quadrupole Moments (Debye-Ang)
        XX     -53.8289     XY       0.2153     YY     -56.9746
        XZ       4.6794     YZ       0.8360     ZZ     -51.7056

 Frequency:        -9.37                  96.55                 189.19
 Force Cnst:      0.0002                 0.0203                 0.0475
 Red. Mass:       4.7958                 3.6995                 2.2521
 IR Intens:       13.541                  8.843                 53.641
 Frequency:       210.22                 226.68                 333.56
 Force Cnst:      0.0890                 0.0542                 0.1236
 Red. Mass:       3.4168                 1.7918                 1.8862
 IR Intens:       14.081                  0.222                  0.127
 Frequency:       395.98                 408.98                 448.70
 Force Cnst:      0.3296                 0.3706                 0.2745
 Red. Mass:       3.5674                 3.7601                 2.3144
 IR Intens:       14.796                 28.297                  0.759
 Frequency:       464.08                 531.94                 590.23
 Force Cnst:      0.4457                 0.2697                 0.2356
 Red. Mass:       3.5126                 1.6179                 1.1478
 IR Intens:       10.876                  2.384                 91.776
 Frequency:       745.22                 799.05                 821.90
 Force Cnst:      1.3674                 0.5423                 0.9752
 Red. Mass:       4.1790                 1.4417                 2.4501
 IR Intens:        5.530                  0.174                  0.892
 Frequency:       850.11                 902.01                 917.02
 Force Cnst:      0.8498                 0.8809                 0.9685
 Red. Mass:       1.9957                 1.8377                 1.9548
 IR Intens:        2.544                 15.123                  1.033
 Frequency:       936.03                 964.74                1025.78
 Force Cnst:      0.7790                 1.2902                 0.9871
 Red. Mass:       1.5090                 2.3527                 1.5922
 IR Intens:        0.507                  6.991                  0.053
 Frequency:      1036.35                1063.98                1070.62
 Force Cnst:      1.1177                 0.9406                 2.3996
 Red. Mass:       1.7663                 1.4103                 3.5531
 IR Intens:        2.539                  2.712                 18.732
 Frequency:      1092.27                1103.70                1174.64
 Force Cnst:      0.8118                 1.7901                 1.8821
 Red. Mass:       1.1548                 2.4942                 2.3152
 IR Intens:        0.019                  1.954                  5.169
 Frequency:      1211.08                1239.25                1276.04
 Force Cnst:      1.2790                 1.6001                 1.2684
 Red. Mass:       1.4800                 1.7684                 1.3221
 IR Intens:        1.554                 66.541                 16.129
 Frequency:      1288.69                1296.97                1342.25
 Force Cnst:      1.2367                 1.3722                 1.3564
 Red. Mass:       1.2640                 1.3846                 1.2778
 IR Intens:        2.861                 10.479                  3.934
 Frequency:      1346.14                1375.51                1383.56
 Force Cnst:      1.3228                 1.5454                 1.5322
 Red. Mass:       1.2390                 1.3863                 1.3585
 IR Intens:       12.189                  1.382                  0.631
 Frequency:      1385.40                1388.35                1405.60
 Force Cnst:      1.6943                 1.6886                 1.7211
 Red. Mass:       1.4983                 1.4868                 1.4786
 IR Intens:        0.075                 10.550                  0.977
 Frequency:      1427.12                1495.08                1497.91
 Force Cnst:      1.4951                 1.4327                 1.4391
 Red. Mass:       1.2460                 1.0879                 1.0886
 IR Intens:       54.474                  0.146                  5.179
 Frequency:      1500.71                1501.77                1514.11
 Force Cnst:      1.4573                 1.4502                 1.4873
 Red. Mass:       1.0982                 1.0914                 1.1011
 IR Intens:        7.310                 11.227                  0.531
 Frequency:      1557.96                1703.91                3012.97
 Force Cnst:      2.6727                 9.8730                 5.7105
 Red. Mass:       1.8689                 5.7717                 1.0677
 IR Intens:      307.170                733.644                 35.749
 Frequency:      3013.68                3017.49                3019.55
 Force Cnst:      5.7193                 5.7357                 5.7082
 Red. Mass:       1.0688                 1.0692                 1.0626
 IR Intens:       33.672                 17.377                 10.261
 Frequency:      3020.98                3025.88                3062.58
 Force Cnst:      5.7026                 5.8569                 6.0457
 Red. Mass:       1.0605                 1.0857                 1.0940
 IR Intens:      133.117                126.875                112.522
 Frequency:      3063.98                3067.66                3069.10
 Force Cnst:      6.0686                 6.0849                 6.0853
 Red. Mass:       1.0972                 1.0975                 1.0965
 IR Intens:      115.106                 74.922                 84.167
 Frequency:      3071.00                3097.26                3581.61
 Force Cnst:      6.1069                 6.1488                 8.1503
 Red. Mass:       1.0990                 1.0879                 1.0784
 IR Intens:       49.195                 52.703                 55.256
 Frequency:        -9.36                  95.86                 169.92
 Force Cnst:      0.0002                 0.0201                 0.0475
 Red. Mass:       4.8050                 3.7199                 2.7925
 IR Intens:       13.522                  8.601                 45.098
 Frequency:       209.23                 226.67                 333.36
 Force Cnst:      0.0917                 0.0542                 0.1241
 Red. Mass:       3.5552                 1.7915                 1.8960
 IR Intens:       10.770                  0.185                  0.112
 Frequency:       390.58                 403.02                 448.41
 Force Cnst:      0.3317                 0.3869                 0.2788
 Red. Mass:       3.6903                 4.0430                 2.3534
 IR Intens:       12.722                 19.757                  0.728
 Frequency:       460.15                 529.35                 580.41
 Force Cnst:      0.4119                 0.2669                 0.2254
 Red. Mass:       3.3021                 1.6168                 1.1355
 IR Intens:        3.286                  1.886                113.127
 Frequency:       735.83                 799.04                 819.79
 Force Cnst:      1.3203                 0.5424                 0.9606
 Red. Mass:       4.1388                 1.4418                 2.4259
 IR Intens:        5.300                  0.173                  0.667
 Frequency:       849.08                 862.58                 902.05
 Force Cnst:      0.8624                 1.7705                 0.8779
 Red. Mass:       2.0303                 4.0387                 1.8311
 IR Intens:        2.985                  0.809                 14.933
 Frequency:       914.69                 936.08                 942.15
 Force Cnst:      1.0083                 0.7815                 1.1773
 Red. Mass:       2.0455                 1.5138                 2.2510
 IR Intens:        1.816                  0.691                  6.186
 Frequency:      1021.51                1036.78                1063.34
 Force Cnst:      1.4177                 1.1395                 0.9377
 Red. Mass:       2.3060                 1.7992                 1.4076
 IR Intens:        6.666                  1.740                  2.120
 Frequency:      1092.21                1103.23                1119.22
 Force Cnst:      0.8054                 1.8213                 2.4317
 Red. Mass:       1.1459                 2.5398                 3.2948
 IR Intens:        0.020                  1.808                 23.920
 Frequency:      1178.84                1210.73                1242.77
 Force Cnst:      2.0672                 1.2807                 1.8692
 Red. Mass:       2.5247                 1.4829                 2.0541
 IR Intens:       16.977                  1.197                 50.382
 Frequency:      1275.52                1288.68                1295.87
 Force Cnst:      1.2636                 1.2368                 1.3568
 Red. Mass:       1.3182                 1.2641                 1.3713
 IR Intens:       13.354                  2.808                  6.583
 Frequency:      1341.86                1345.34                1375.47
 Force Cnst:      1.3412                 1.3197                 1.5451
 Red. Mass:       1.2643                 1.2376                 1.3862
 IR Intens:        4.881                  8.805                  1.327
 Frequency:      1383.49                1385.39                1388.34
 Force Cnst:      1.5323                 1.6931                 1.6880
 Red. Mass:       1.3588                 1.4972                 1.4864
 IR Intens:        0.556                  0.069                 10.378
 Frequency:      1405.08                1495.07                1497.91
 Force Cnst:      1.7091                 1.4327                 1.4391
 Red. Mass:       1.4693                 1.0879                 1.0886
 IR Intens:        0.712                  0.149                  5.267
 Frequency:      1500.71                1501.76                1514.08
 Force Cnst:      1.4573                 1.4502                 1.4876
 Red. Mass:       1.0982                 1.0914                 1.1014
 IR Intens:        7.294                 11.043                  0.739
 Frequency:      1551.90                1681.45                2235.80
 Force Cnst:      2.5034                14.3722                 7.0608
 Red. Mass:       1.7642                 8.6279                 2.3974
 IR Intens:      253.747                824.346                100.620
 Frequency:      3012.97                3013.68                3017.53
 Force Cnst:      5.7105                 5.7192                 5.7354
 Red. Mass:       1.0677                 1.0688                 1.0691
 IR Intens:       36.212                 32.909                 22.520
 Frequency:      3019.55                3020.98                3062.58
 Force Cnst:      5.7082                 5.7026                 6.0457
 Red. Mass:       1.0626                 1.0605                 1.0940
 IR Intens:       10.765                133.828                114.662
 Frequency:      3063.98                3067.66                3069.10
 Force Cnst:      6.0686                 6.0851                 6.0851
 Red. Mass:       1.0972                 1.0975                 1.0965
 IR Intens:      115.111                 74.709                 83.047
 Frequency:      3071.00                3097.22                3581.56
 Force Cnst:      6.1069                 6.1487                 8.1498
 Red. Mass:       1.0990                 1.0879                 1.0783
 IR Intens:       49.071                 55.258                 55.833

 STANDARD THERMODYNAMIC QUANTITIES AT   298.18 K  AND     1.00 ATM

   This Molecule has  1 Imaginary Frequencies
   Zero point vibrational energy:      121.854 kcal/mol

   Atom    1 Element C  Has Mass   12.00000
   Atom    2 Element C  Has Mass   12.00000
   Atom    3 Element C  Has Mass   12.00000
   Atom    4 Element C  Has Mass   12.00000
   Atom    5 Element C  Has Mass   12.00000
   Atom    6 Element C  Has Mass   12.00000
   Atom    7 Element H  Has Mass    1.00783
   Atom    8 Element H  Has Mass    1.00783
   Atom    9 Element H  Has Mass    1.00783
   Atom   10 Element H  Has Mass    1.00783
   Atom   11 Element H  Has Mass    1.00783
   Atom   12 Element H  Has Mass    1.00783
   Atom   13 Element H  Has Mass    1.00783
   Atom   14 Element H  Has Mass    1.00783
   Atom   15 Element H  Has Mass    1.00783
   Atom   16 Element H  Has Mass    1.00783
   Atom   17 Element H  Has Mass    1.00783
   Atom   18 Element N  Has Mass   14.00307
   Atom   19 Element H  Has Mass    1.00783
   Atom   20 Element C  Has Mass   12.00000
   Atom   21 Element H  Has Mass    2.01410
   Atom   22 Element O  Has Mass   15.99491
   Molecular Mass:   128.106042 amu
   Principal axes and moments of inertia in amu*Bohr^2:
                             1           2           3
    Eigenvalues --      538.18877  2024.22103  2229.31912
          X               0.65846    -0.03028     0.75201
          Y               0.09356     0.99473    -0.04186
          Z               0.74678    -0.09792    -0.65783
   Rotational Symmetry Number is   1
   The Molecule is an Asymmetric Top
   Translational Enthalpy:        0.889 kcal/mol
   Rotational Enthalpy:           0.889 kcal/mol
   Vibrational Enthalpy:        125.140 kcal/mol
   gas constant (RT):             0.593 kcal/mol
   Translational Entropy:        40.457  cal/mol.K
   Rotational Entropy:           29.275  cal/mol.K
   Vibrational Entropy:          18.114  cal/mol.K

   Total Enthalpy:              127.510 kcal/mol
   Total Entropy:                87.846  cal/mol.K

 Total job time:  836.61s(wall), 11417.65s(cpu)
        *  Thank you very much for using Q-Chem.  Have a nice day.  *
