 Q-Chem 5.2 (devel), Q-Chem, Inc., Pleasanton, CA (2019)
 Q-Chem 5.2.2 for Intel X86 EM64T Linux

User input:
--------------------------------------------------------------
$molecule
0 1
C     -2.4083508923    0.9984834764   -2.3662547437
C     -1.5543120384   -0.2118403749   -1.9459885704
C     -2.2384976761   -1.5367925874   -2.3261896725
C     -2.5867463449   -1.5816552836   -3.8234193167
C     -3.4377297730   -0.3731774783   -4.2445934317
C     -2.7551397527    0.9499468362   -3.8636626912
H     -1.5849547626   -2.3750094827   -2.0545927530
H     -0.5831065672   -0.1532425547   -2.4485260558
H     -3.3388117820    1.0024650072   -1.7759883684
H     -1.8720534969    1.9234708349   -2.1213670712
H     -1.6555784977   -1.5918293252   -4.4093866053
H     -3.1102152921   -2.5181807775   -4.0551406051
H     -3.6290653549   -0.4033428377   -5.3251377272
H     -4.4201020066   -0.4306546907   -3.7508934023
H     -1.8320207629    1.0648782183   -4.4511997179
H     -3.3973970401    1.8010825553   -4.1242295555
H     -3.1618885583   -1.6469527918   -1.7346449512
N     -1.2474445251   -0.1731895513   -0.5151412109
H     -2.0131265263   -0.2687147311    0.1418849346
C      0.0000000000    0.0000000000    0.0000000000
H      0.0000000000    0.0000000000    1.1070732462
O      1.0278769477    0.1402881570   -0.6492362509
$end

$rem
JOBTYPE  OPT
METHOD  B3LYP
BASIS  6-31+G(D)
SYMMETRY  FALSE
SYM_IGNORE  TRUE
MEM_TOTAL  8000
MEM_STATIC  2000
MAX_SUB_FILE_NUM  16000
BASIS_LIN_DEP_THRESH  6
THRESH  14
SCF_CONVERGENCE  9
GEN_SCFMAN  TRUE
SCF_GUESS  SAD
FD_MAT_VEC_PROD  FALSE
XC_GRID  000099000590
NL_GRID  1
MAX_SCF_CYCLES  200
GEOM_OPT_TOL_GRADIENT  100
GEOM_OPT_TOL_DISPLACEMENT  100
GEOM_OPT_TOL_ENERGY  10
$end

$multipole_field
Z   -0.015558
$end

--------------------------------------------------------------

   16    -404.6000523411      3.10e-10  Convergence criterion met
 Total energy in the final basis set =     -404.6000523411
   13    -404.6021272033      3.05e-10  Convergence criterion met
 Total energy in the final basis set =     -404.6021272033
   12    -404.6023485925      4.92e-10  Convergence criterion met
 Total energy in the final basis set =     -404.6023485925
   12    -404.6023492944      2.84e-10  Convergence criterion met
 Total energy in the final basis set =     -404.6023492944
   11    -404.6023590348      5.20e-10  Convergence criterion met
 Total energy in the final basis set =     -404.6023590348
   11    -404.6023644777      4.81e-10  Convergence criterion met
 Total energy in the final basis set =     -404.6023644777
   10    -404.6023651841      7.00e-10  Convergence criterion met
 Total energy in the final basis set =     -404.6023651841
   11    -404.6023661788      4.21e-10  Convergence criterion met
 **  OPTIMIZATION CONVERGED  **
 Total job time:  539.37s(wall), 8486.12s(cpu)
        *  Thank you very much for using Q-Chem.  Have a nice day.  *

User input: 2 of 2

                  Welcome to Q-Chem
     A Quantum Leap Into The Future Of Chemistry

 Q-Chem 5.2 (devel), Q-Chem, Inc., Pleasanton, CA (2019)

 Yihan Shao,  Zhengting Gan,  E. Epifanovsky,  A. T. B. Gilbert,  M. Wormit,
 J. Kussmann,  A. W. Lange,  A. Behn,  Jia Deng,  Xintian Feng,  D. Ghosh,
 M. Goldey,  P. R. Horn,  L. D. Jacobson,  I. Kaliman,  T. Kus,  A. Landau,
 Jie Liu,  E. I. Proynov,  R. M. Richard,  R. P. Steele,  E. J. Sundstrom,
 H. L. Woodcock III,  P. M. Zimmerman,  D. Zuev,  B. Alam,  B. Albrecht,
 E. Alguire,  S. A. Baeppler,  D. Barton,  Z. Benda,  Y. A. Bernard,
 E. J. Berquist,  K. B. Bravaya,  H. Burton,  K. Carter-Fenk,  D. Casanova,
 Chun-Min Chang,  Yunqing Chen,  A. Chien,  K. D. Closser,  M. P. Coons,
 S. Coriani,  S. Dasgupta,  A. L. Dempwolff,  M. Diedenhofen,  Hainam Do,
 R. G. Edgar,  Po-Tung Fang,  S. Faraji,  S. Fatehi,  Qingguo Feng,
 J. Fosso-Tande,  J. Gayvert,  Qinghui Ge,  A. Ghysels,  G. Gidofalvi,
 J. Gomes,  J. Gonthier,  A. Gunina,  D. Hait,  M. W. D. Hanson-Heine,
 P. H. P. Harbach,  A. W. Hauser,  M. F. Herbst,  J. E. Herr,
 E. G. Hohenstein,  Z. C. Holden,  Kerwin Hui,  B. C. Huynh,  T.-C. Jagau,
 Hyunjun Ji,  B. Kaduk,  K. Khistyaev,  Jaehoon Kim,  P. Klunzinger,  K. Koh,
 D. Kosenkov,  L. Koulias,  T. Kowalczyk,  C. M. Krauter,  A. Kunitsa,
 Ka Un Lao,  A. Laurent,  K. V. Lawler,  Joonho Lee,  D. Lefrancois,
 S. Lehtola,  D. S. Levine,  Yi-Pei Li,  You-Sheng Lin,  Fenglai Liu,
 Kuan-Yu Liu,  E. Livshits,  M. Loipersberger,  A. Luenser,  P. Manohar,
 E. Mansoor,  S. F. Manzer,  Shan-Ping Mao,  Yuezhi Mao,  N. Mardirossian,
 A. V. Marenich,  T. Markovich,  L. A. Martinez-Martinez,  S. A. Maurer,
 N. J. Mayhall,  S. C. McKenzie,  J.-M. Mewes,  P. Morgante,  A. F. Morrison,
 J. W. Mullinax,  K. Nanda,  T. S. Nguyen-Beck,  R. Olivares-Amaya,
 J. A. Parkhill,  S. K. Paul,  F. Pavosevic,  Zheng Pei,  T. M. Perrine,
 F. Plasser,  P. Pokhilko,  S. Prager,  A. Prociuk,  E. Ramos,  B. Rana,
 D. R. Rehn,  F. Rob,  M. Scheurer,  M. Schneider,  N. Sergueev,
 S. M. Sharada,  S. Sharma,  D. W. Small,  T. Stauch,  C. J. Stein,
 T. Stein,  Yu-Chuan Su,  S. P. Veccham,  Zhen Tao,  A. J. W. Thom,
 A. Tkatchenko,  T. Tsuchimochi,  N. M. Tubman,  L. Vogt,  M. L. Vidal,
 O. Vydrov,  M. A. Watson,  J. Wenzel,  M. de Wergifosse,  T. A. Wesolowski,
 A. White,  J. Witte,  A. Yamada,  Jun Yang,  K. Yao,  S. Yeganeh,
 S. R. Yost,  Zhi-Qiang You,  A. Zech,  Igor Ying Zhang,  Xing Zhang,
 Yan Zhao,  Ying Zhu,  B. R. Brooks,  G. K. L. Chan,  C. J. Cramer,
 M. S. Gordon,  W. J. Hehre,  A. Klamt,  M. W. Schmidt,  C. D. Sherrill,
 D. G. Truhlar,  A. Aspuru-Guzik,  R. Baer,  A. T. Bell,  N. A. Besley,
 Jeng-Da Chai,  A. E. DePrince, III,  R. A. DiStasio Jr.,  A. Dreuw,
 B. D. Dunietz,  T. R. Furlani,  Chao-Ping Hsu,  Yousung Jung,  Jing Kong,
 D. S. Lambrecht,  WanZhen Liang,  C. Ochsenfeld,  V. A. Rassolov,
 L. V. Slipchenko,  J. E. Subotnik,  T. Van Voorhis,  J. M. Herbert,
 A. I. Krylov,  P. M. W. Gill,  M. Head-Gordon

 Contributors to earlier versions of Q-Chem not listed above:
 R. D. Adamson,  B. Austin,  J. Baker,  G. J. O. Beran,  K. Brandhorst,
 S. T. Brown,  E. F. C. Byrd,  A. K. Chakraborty,  C.-L. Cheng,
 Siu Hung Chien,  D. M. Chipman,  D. L. Crittenden,  H. Dachsel,
 R. J. Doerksen,  A. D. Dutoi,  L. Fusti-Molnar,  W. A. Goddard III,
 A. Golubeva-Zadorozhnaya,  S. R. Gwaltney,  G. Hawkins,  A. Heyden,
 S. Hirata,  G. Kedziora,  F. J. Keil,  C. Kelley,  Jihan Kim,  R. A. King,
 R. Z. Khaliullin,  P. P. Korambath,  W. Kurlancheek,  A. M. Lee,  M. S. Lee,
 S. V. Levchenko,  Ching Yeh Lin,  D. Liotard,  R. C. Lochan,  I. Lotan,
 P. E. Maslen,  N. Nair,  D. P. O'Neill,  D. Neuhauser,  E. Neuscamman,
 C. M. Oana,  R. Olson,  B. Peters,  R. Peverati,  P. A. Pieniazek,
 Y. M. Rhee,  J. Ritchie,  M. A. Rohrdanz,  E. Rosta,  N. J. Russ,
 H. F. Schaefer III,  N. E. Schultz,  N. Shenvi,  A. C. Simmonett,  A. Sodt,
 D. Stuck,  K. S. Thanthiriwatte,  V. Vanovschi,  Tao Wang,  A. Warshel,
 C. F. Williams,  Q. Wu,  X. Xu,  W. Zhang

 Please cite Q-Chem as follows:
 Y. Shao et al., Mol. Phys. 113, 184-215 (2015)
 DOI: 10.1080/00268976.2014.952696

 Q-Chem 5.2.2 for Intel X86 EM64T Linux

 Parts of Q-Chem use Armadillo 9.800.1 (Horizon Scraper).
 http://arma.sourceforge.net/

 Q-Chem begins on Sun Mar  7 04:35:30 2021

Host: node028
0

     Scratch files written to /home/ymao90/scratch/CCX_CD_+8020210307030514//
The previous job contains 0 fragments, simply inherited here

Checking the input file for inconsistencies... 	...done.

--------------------------------------------------------------
User input:
--------------------------------------------------------------

$molecule
read
$end

$rem
JOBTYPE  FREQ
METHOD  B3LYP
BASIS  6-31+G(D)
SYMMETRY  FALSE
SYM_IGNORE  TRUE
MEM_TOTAL  8000
MEM_STATIC  2000
MAX_SUB_FILE_NUM  16000
BASIS_LIN_DEP_THRESH  6
THRESH  14
SCF_CONVERGENCE  9
GEN_SCFMAN  TRUE
SCF_GUESS  READ
FD_MAT_VEC_PROD  FALSE
XC_GRID  000099000590
IDERIV   1
NL_GRID  1
MAX_SCF_CYCLES  200
ISOTOPES TRUE
$end

$isotopes
1 0
1
 21 2.0141018
$end

$multipole_field
Z   -0.015558
$end
--------------------------------------------------------------

 Total energy in the final basis set =     -404.6023686481
   10    -404.6023695809      2.57e-10  Convergence criterion met
 Total energy in the final basis set =     -404.6023695809
   10    -404.6023691755      3.62e-10  Convergence criterion met
 Total energy in the final basis set =     -404.6023691755
   10    -404.6023685440      7.39e-10  Convergence criterion met
 Total energy in the final basis set =     -404.6023685440
   10    -404.6023696357      5.82e-10  Convergence criterion met
 Total energy in the final basis set =     -404.6023696357
   10    -404.6023695620      4.93e-10  Convergence criterion met
 Total energy in the final basis set =     -404.6023695620
    9    -404.6023683971      8.93e-10  Convergence criterion met
 Total energy in the final basis set =     -404.6023683971
   10    -404.6023696374      5.08e-10  Convergence criterion met
 Total energy in the final basis set =     -404.6023696374

                    Orbital Energies (a.u.)
 --------------------------------------------------------------

 Alpha MOs
 -- Occupied --
-19.1585 -14.4057 -10.3181 -10.3006 -10.2921 -10.2910 -10.2891 -10.2638
-10.2614  -1.0687  -0.9713  -0.9181  -0.8368  -0.8233  -0.7115  -0.7043
 -0.6567  -0.6373  -0.5882  -0.5620  -0.5364  -0.5349  -0.5218  -0.4871
 -0.4845  -0.4757  -0.4506  -0.4408  -0.4391  -0.4261  -0.4161  -0.4023
 -0.3941  -0.2988  -0.2923

          Ground-State Mulliken Net Atomic Charges

     Atom                 Charge (a.u.)
  ----------------------------------------
      1 C                    -0.210045
      2 C                    -0.546811
      3 C                    -0.280029
      4 C                    -0.426283
      5 C                    -0.378290
      6 C                    -0.427799
      7 H                     0.231095
      8 H                     0.229517
      9 H                     0.223038
     10 H                     0.231326
     11 H                     0.177712
     12 H                     0.174537
     13 H                     0.128240
     14 H                     0.207870
     15 H                     0.178742
     16 H                     0.173571
     17 H                     0.223073
     18 N                    -0.399108
     19 H                     0.433786
     20 C                     0.337041
     21 H                     0.224790
     22 O                    -0.505976
  ----------------------------------------
  Sum of atomic charges =     0.000000

                    Cartesian Multipole Moments
 -----------------------------------------------------------------
    Charge (ESU x 10^10)
                -0.0000
    Dipole Moment (Debye)
         X      -3.2750      Y      -0.7152      Z       4.7659
       Tot       5.8267
    Quadrupole Moments (Debye-Ang)
        XX     -57.2149     XY      -0.1477     YY     -57.5705
        XZ      -4.4059     YZ      -0.1012     ZZ     -71.8473

             Standard Nuclear Orientation (Angstroms)
    I     Atom           X                Y                Z
 ----------------------------------------------------------------
    1      C      -2.4765678351     0.9739151034    -2.3035789337
    2      C      -1.6381382148    -0.2472342582    -1.8783576144
    3      C      -2.3433897106    -1.5552589425    -2.2760161849
    4      C      -2.5750399878    -1.5892830433    -3.7989286619
    5      C      -3.3581822024    -0.3579397679    -4.2908984859
    6      C      -2.7085512007     0.9581090514    -3.8256074692
    7      H      -1.7356008914    -2.4116271935    -1.9626559349
    8      H      -0.6829769864    -0.1978588978    -2.4153793430
    9      H      -3.4422766211     0.9666305475    -1.7778229647
   10      H      -1.9594647253     1.8920788300    -2.0037620995
   11      H      -1.5939056712    -1.6169295728    -4.3030459862
   12      H      -3.1023590678    -2.5123964249    -4.0822329318
   13      H      -3.4391559332    -0.3744509744    -5.3938773746
   14      H      -4.3852404149    -0.4075842525    -3.9001979996
   15      H      -1.7352666817     1.0796128630    -4.3310067930
   16      H      -3.3298953619     1.8154874059    -4.1250691771
   17      H      -3.3065763742    -1.6413404481    -1.7522748399
   18      N      -1.2484112094    -0.2105673722    -0.4799469097
   19      H      -1.9341953457    -0.3437117309     0.2563553624
   20      C       0.0456853485     0.0596740554    -0.1219471294
   21      H       0.2092050993     0.0698703514     0.9662172610
   22      O       0.9416392854     0.2668372896    -0.9366003098
 ----------------------------------------------------------------

 Frequency:        15.18                 105.28                 220.49
 Force Cnst:      0.0006                 0.0233                 0.0780
 Red. Mass:       4.7125                 3.5667                 2.7249
 IR Intens:        5.465                  3.494                 21.401
 Frequency:       229.57                 237.42                 335.40
 Force Cnst:      0.0669                 0.0703                 0.1298
 Red. Mass:       2.1530                 2.1153                 1.9582
 IR Intens:       10.897                 13.686                  0.223
 Frequency:       396.38                 409.20                 452.53
 Force Cnst:      0.3497                 0.3769                 0.3698
 Red. Mass:       3.7776                 3.8207                 3.0649
 IR Intens:       24.389                 20.105                  3.081
 Frequency:       463.59                 535.66                 556.24
 Force Cnst:      0.3006                 0.2824                 0.2078
 Red. Mass:       2.3740                 1.6706                 1.1400
 IR Intens:        3.546                  4.587                 49.446
 Frequency:       746.75                 801.03                 823.52
 Force Cnst:      1.2934                 0.5462                 1.0965
 Red. Mass:       3.9366                 1.4447                 2.7441
 IR Intens:        8.799                  0.294                  0.518
 Frequency:       844.82                 899.70                 921.95
 Force Cnst:      0.7949                 1.0005                 0.9778
 Red. Mass:       1.8902                 2.0978                 1.9524
 IR Intens:        1.698                  4.760                  0.918
 Frequency:       931.26                 971.30                1035.48
 Force Cnst:      0.7099                 1.2856                 1.0141
 Red. Mass:       1.3893                 2.3129                 1.6053
 IR Intens:        2.030                  6.215                  0.464
 Frequency:      1035.81                1064.76                1089.44
 Force Cnst:      1.1272                 0.9314                 0.7440
 Red. Mass:       1.7831                 1.3944                 1.0639
 IR Intens:        0.849                  4.419                  1.070
 Frequency:      1093.73                1100.44                1176.36
 Force Cnst:      2.1488                 2.4910                 1.7784
 Red. Mass:       3.0488                 3.4913                 2.1812
 IR Intens:        1.380                  1.589                  2.418
 Frequency:      1202.40                1208.98                1281.02
 Force Cnst:      1.8466                 1.4004                 1.2850
 Red. Mass:       2.1679                 1.6262                 1.3291
 IR Intens:      109.099                 14.091                 18.326
 Frequency:      1290.87                1292.76                1344.01
 Force Cnst:      1.2667                 1.2516                 1.3850
 Red. Mass:       1.2902                 1.2711                 1.3014
 IR Intens:        1.941                  0.788                  2.665
 Frequency:      1359.36                1367.84                1379.38
 Force Cnst:      1.3662                 1.5223                 1.5657
 Red. Mass:       1.2548                 1.3809                 1.3966
 IR Intens:       33.817                  1.884                  0.421
 Frequency:      1380.65                1400.92                1415.81
 Force Cnst:      1.6262                 1.6003                 1.6966
 Red. Mass:       1.4480                 1.3839                 1.4366
 IR Intens:        1.864                  2.234                  5.891
 Frequency:      1419.05                1501.04                1502.47
 Force Cnst:      1.4446                 1.4487                 1.4479
 Red. Mass:       1.2176                 1.0913                 1.0886
 IR Intens:       19.132                  1.581                  0.533
 Frequency:      1508.81                1512.78                1525.98
 Force Cnst:      1.4675                 1.4785                 1.5283
 Red. Mass:       1.0941                 1.0965                 1.1140
 IR Intens:        7.076                 14.457                  5.788
 Frequency:      1539.52                1738.98                2938.83
 Force Cnst:      2.3295                11.7612                 5.4554
 Red. Mass:       1.6682                 6.6010                 1.0721
 IR Intens:      178.096                323.585                134.858
 Frequency:      2980.19                2987.46                3019.48
 Force Cnst:      5.5816                 5.6192                 5.8372
 Red. Mass:       1.0666                 1.0686                 1.0867
 IR Intens:       36.201                119.888                 62.339
 Frequency:      3021.90                3033.75                3039.73
 Force Cnst:      5.8456                 5.8348                 5.8493
 Red. Mass:       1.0865                 1.0760                 1.0744
 IR Intens:       57.512                  2.759                 43.780
 Frequency:      3046.34                3062.54                3075.86
 Force Cnst:      5.9547                 5.9585                 6.0903
 Red. Mass:       1.0891                 1.0783                 1.0926
 IR Intens:      104.609                 46.011                 12.764
 Frequency:      3095.93                3100.62                3583.44
 Force Cnst:      6.2011                 6.2260                 8.1647
 Red. Mass:       1.0981                 1.0992                 1.0792
 IR Intens:       22.998                 19.370                 47.770
 Frequency:        15.31                 104.55                 201.39
 Force Cnst:      0.0006                 0.0231                 0.0686
 Red. Mass:       4.7085                 3.5866                 2.8709
 IR Intens:        5.499                  3.419                 31.414
 Frequency:       226.56                 234.75                 335.26
 Force Cnst:      0.0869                 0.0629                 0.1301
 Red. Mass:       2.8738                 1.9363                 1.9645
 IR Intens:        5.523                  1.859                  0.188
 Frequency:       389.79                 404.48                 450.67
 Force Cnst:      0.3700                 0.3874                 0.3730
 Red. Mass:       4.1337                 4.0191                 3.1169
 IR Intens:       17.525                 16.299                  0.806
 Frequency:       463.01                 532.74                 544.25
 Force Cnst:      0.2933                 0.2782                 0.1962
 Red. Mass:       2.3223                 1.6639                 1.1241
 IR Intens:        1.634                  5.030                 64.757
 Frequency:       737.96                 801.01                 821.26
 Force Cnst:      1.2551                 0.5462                 1.0674
 Red. Mass:       3.9116                 1.4449                 2.6861
 IR Intens:        8.662                  0.290                  0.537
 Frequency:       843.87                 871.11                 899.70
 Force Cnst:      0.8099                 1.7942                 0.9988
 Red. Mass:       1.9303                 4.0132                 2.0942
 IR Intens:        1.877                  0.061                  4.751
 Frequency:       920.12                 931.25                 946.20
 Force Cnst:      0.9820                 0.7094                 1.2336
 Red. Mass:       1.9687                 1.3883                 2.3387
 IR Intens:        1.127                  2.124                  7.908
 Frequency:      1015.71                1036.71                1064.14
 Force Cnst:      1.3249                 1.1687                 0.9436
 Red. Mass:       2.1797                 1.8456                 1.4142
 IR Intens:        0.414                  0.623                  3.948
 Frequency:      1089.27                1093.82                1145.59
 Force Cnst:      0.7415                 2.1365                 2.7661
 Red. Mass:       1.0607                 3.0309                 3.5773
 IR Intens:        0.841                  1.035                  9.598
 Frequency:      1182.14                1205.61                1208.36
 Force Cnst:      2.1199                 1.9148                 1.4088
 Red. Mass:       2.5747                 2.2359                 1.6376
 IR Intens:        5.884                 90.543                 15.124
 Frequency:      1281.10                1290.56                1292.74
 Force Cnst:      1.2901                 1.2593                 1.2510
 Red. Mass:       1.3341                 1.2832                 1.2705
 IR Intens:       16.218                  1.565                  0.803
 Frequency:      1343.90                1358.52                1367.82
 Force Cnst:      1.3825                 1.3546                 1.5224
 Red. Mass:       1.2992                 1.2457                 1.3810
 IR Intens:        2.765                 31.561                  1.836
 Frequency:      1379.38                1380.64                1400.87
 Force Cnst:      1.5655                 1.6262                 1.6026
 Red. Mass:       1.3965                 1.4480                 1.3860
 IR Intens:        0.415                  1.933                  2.147
 Frequency:      1414.84                1501.02                1502.47
 Force Cnst:      1.6734                 1.4486                 1.4479
 Red. Mass:       1.4189                 1.0912                 1.0886
 IR Intens:        5.784                  1.702                  0.541
 Frequency:      1508.80                1512.71                1525.67
 Force Cnst:      1.4677                 1.4814                 1.5469
 Red. Mass:       1.0943                 1.0988                 1.1280
 IR Intens:        7.081                 14.882                 11.051
 Frequency:      1535.91                1711.98                2282.75
 Force Cnst:      2.1995                13.7446                 7.5346
 Red. Mass:       1.5825                 7.9595                 2.4541
 IR Intens:      152.192                358.758                 27.570
 Frequency:      2938.83                2980.19                2987.46
 Force Cnst:      5.4554                 5.5816                 5.6192
 Red. Mass:       1.0721                 1.0666                 1.0686
 IR Intens:      134.730                 36.206                119.963
 Frequency:      3019.48                3021.90                3033.76
 Force Cnst:      5.8372                 5.8456                 5.8347
 Red. Mass:       1.0867                 1.0865                 1.0760
 IR Intens:       62.245                 57.515                  2.592
 Frequency:      3039.73                3046.38                3062.78
 Force Cnst:      5.8493                 5.9545                 5.9578
 Red. Mass:       1.0744                 1.0890                 1.0780
 IR Intens:       43.781                105.352                 39.435
 Frequency:      3095.93                3100.62                3583.39
 Force Cnst:      6.2012                 6.2261                 8.1644
 Red. Mass:       1.0981                 1.0992                 1.0792
 IR Intens:       23.036                 19.452                 48.077

 STANDARD THERMODYNAMIC QUANTITIES AT   298.18 K  AND     1.00 ATM

   This Molecule has  0 Imaginary Frequencies
   Zero point vibrational energy:      121.826 kcal/mol

   Atom    1 Element C  Has Mass   12.00000
   Atom    2 Element C  Has Mass   12.00000
   Atom    3 Element C  Has Mass   12.00000
   Atom    4 Element C  Has Mass   12.00000
   Atom    5 Element C  Has Mass   12.00000
   Atom    6 Element C  Has Mass   12.00000
   Atom    7 Element H  Has Mass    1.00783
   Atom    8 Element H  Has Mass    1.00783
   Atom    9 Element H  Has Mass    1.00783
   Atom   10 Element H  Has Mass    1.00783
   Atom   11 Element H  Has Mass    1.00783
   Atom   12 Element H  Has Mass    1.00783
   Atom   13 Element H  Has Mass    1.00783
   Atom   14 Element H  Has Mass    1.00783
   Atom   15 Element H  Has Mass    1.00783
   Atom   16 Element H  Has Mass    1.00783
   Atom   17 Element H  Has Mass    1.00783
   Atom   18 Element N  Has Mass   14.00307
   Atom   19 Element H  Has Mass    1.00783
   Atom   20 Element C  Has Mass   12.00000
   Atom   21 Element H  Has Mass    2.01410
   Atom   22 Element O  Has Mass   15.99491
   Molecular Mass:   128.106042 amu
   Principal axes and moments of inertia in amu*Bohr^2:
                             1           2           3
    Eigenvalues --      568.34621  1934.03262  2115.66072
          X               0.66662     0.00038     0.74539
          Y               0.10292     0.99037    -0.09255
          Z               0.73825    -0.13842    -0.66017
   Rotational Symmetry Number is   1
   The Molecule is an Asymmetric Top
   Translational Enthalpy:        0.889 kcal/mol
   Rotational Enthalpy:           0.889 kcal/mol
   Vibrational Enthalpy:        125.623 kcal/mol
   gas constant (RT):             0.593 kcal/mol
   Translational Entropy:        40.457  cal/mol.K
   Rotational Entropy:           29.232  cal/mol.K
   Vibrational Entropy:          24.618  cal/mol.K

   Total Enthalpy:              127.993 kcal/mol
   Total Entropy:                94.307  cal/mol.K

 Total job time:  5091.38s(wall), 80575.22s(cpu)
        *  Thank you very much for using Q-Chem.  Have a nice day.  *
