 Q-Chem 5.2 (devel), Q-Chem, Inc., Pleasanton, CA (2019)
 Q-Chem 5.2.2 for Intel X86 EM64T Linux

User input:
--------------------------------------------------------------
$molecule
0 1
C     -2.4083508923    0.9984834764   -2.3662547437
C     -1.5543120384   -0.2118403749   -1.9459885704
C     -2.2384976761   -1.5367925874   -2.3261896725
C     -2.5867463449   -1.5816552836   -3.8234193167
C     -3.4377297730   -0.3731774783   -4.2445934317
C     -2.7551397527    0.9499468362   -3.8636626912
H     -1.5849547626   -2.3750094827   -2.0545927530
H     -0.5831065672   -0.1532425547   -2.4485260558
H     -3.3388117820    1.0024650072   -1.7759883684
H     -1.8720534969    1.9234708349   -2.1213670712
H     -1.6555784977   -1.5918293252   -4.4093866053
H     -3.1102152921   -2.5181807775   -4.0551406051
H     -3.6290653549   -0.4033428377   -5.3251377272
H     -4.4201020066   -0.4306546907   -3.7508934023
H     -1.8320207629    1.0648782183   -4.4511997179
H     -3.3973970401    1.8010825553   -4.1242295555
H     -3.1618885583   -1.6469527918   -1.7346449512
N     -1.2474445251   -0.1731895513   -0.5151412109
H     -2.0131265263   -0.2687147311    0.1418849346
C      0.0000000000    0.0000000000    0.0000000000
H      0.0000000000    0.0000000000    1.1070732462
O      1.0278769477    0.1402881570   -0.6492362509
$end

$rem
JOBTYPE  OPT
METHOD  B3LYP
BASIS  6-31+G(D)
SYMMETRY  FALSE
SYM_IGNORE  TRUE
MEM_TOTAL  8000
MEM_STATIC  2000
MAX_SUB_FILE_NUM  16000
BASIS_LIN_DEP_THRESH  6
THRESH  14
SCF_CONVERGENCE  9
GEN_SCFMAN  TRUE
SCF_GUESS  SAD
FD_MAT_VEC_PROD  FALSE
XC_GRID  000099000590
NL_GRID  1
MAX_SCF_CYCLES  200
GEOM_OPT_TOL_GRADIENT  100
GEOM_OPT_TOL_DISPLACEMENT  100
GEOM_OPT_TOL_ENERGY  10
$end

$multipole_field
Z   -0.011669
$end

--------------------------------------------------------------

   16    -404.5945855171      2.89e-10  Convergence criterion met
 Total energy in the final basis set =     -404.5945855171
   12    -404.5958196321      9.81e-10  Convergence criterion met
 Total energy in the final basis set =     -404.5958196321
   12    -404.5959255747      3.62e-10  Convergence criterion met
 Total energy in the final basis set =     -404.5959255747
   11    -404.5959177443      9.77e-10  Convergence criterion met
 Total energy in the final basis set =     -404.5959177443
   11    -404.5959325729      4.19e-10  Convergence criterion met
 Total energy in the final basis set =     -404.5959325729
   11    -404.5959335401      2.18e-10  Convergence criterion met
 Total energy in the final basis set =     -404.5959335401
   10    -404.5959342287      6.42e-10  Convergence criterion met
 Total energy in the final basis set =     -404.5959342287
   13    -404.5959399112      3.01e-10  Convergence criterion met
 **  OPTIMIZATION CONVERGED  **
 Total job time:  487.80s(wall), 7584.16s(cpu)
        *  Thank you very much for using Q-Chem.  Have a nice day.  *

User input: 2 of 2

                  Welcome to Q-Chem
     A Quantum Leap Into The Future Of Chemistry

 Q-Chem 5.2 (devel), Q-Chem, Inc., Pleasanton, CA (2019)

 Yihan Shao,  Zhengting Gan,  E. Epifanovsky,  A. T. B. Gilbert,  M. Wormit,
 J. Kussmann,  A. W. Lange,  A. Behn,  Jia Deng,  Xintian Feng,  D. Ghosh,
 M. Goldey,  P. R. Horn,  L. D. Jacobson,  I. Kaliman,  T. Kus,  A. Landau,
 Jie Liu,  E. I. Proynov,  R. M. Richard,  R. P. Steele,  E. J. Sundstrom,
 H. L. Woodcock III,  P. M. Zimmerman,  D. Zuev,  B. Alam,  B. Albrecht,
 E. Alguire,  S. A. Baeppler,  D. Barton,  Z. Benda,  Y. A. Bernard,
 E. J. Berquist,  K. B. Bravaya,  H. Burton,  K. Carter-Fenk,  D. Casanova,
 Chun-Min Chang,  Yunqing Chen,  A. Chien,  K. D. Closser,  M. P. Coons,
 S. Coriani,  S. Dasgupta,  A. L. Dempwolff,  M. Diedenhofen,  Hainam Do,
 R. G. Edgar,  Po-Tung Fang,  S. Faraji,  S. Fatehi,  Qingguo Feng,
 J. Fosso-Tande,  J. Gayvert,  Qinghui Ge,  A. Ghysels,  G. Gidofalvi,
 J. Gomes,  J. Gonthier,  A. Gunina,  D. Hait,  M. W. D. Hanson-Heine,
 P. H. P. Harbach,  A. W. Hauser,  M. F. Herbst,  J. E. Herr,
 E. G. Hohenstein,  Z. C. Holden,  Kerwin Hui,  B. C. Huynh,  T.-C. Jagau,
 Hyunjun Ji,  B. Kaduk,  K. Khistyaev,  Jaehoon Kim,  P. Klunzinger,  K. Koh,
 D. Kosenkov,  L. Koulias,  T. Kowalczyk,  C. M. Krauter,  A. Kunitsa,
 Ka Un Lao,  A. Laurent,  K. V. Lawler,  Joonho Lee,  D. Lefrancois,
 S. Lehtola,  D. S. Levine,  Yi-Pei Li,  You-Sheng Lin,  Fenglai Liu,
 Kuan-Yu Liu,  E. Livshits,  M. Loipersberger,  A. Luenser,  P. Manohar,
 E. Mansoor,  S. F. Manzer,  Shan-Ping Mao,  Yuezhi Mao,  N. Mardirossian,
 A. V. Marenich,  T. Markovich,  L. A. Martinez-Martinez,  S. A. Maurer,
 N. J. Mayhall,  S. C. McKenzie,  J.-M. Mewes,  P. Morgante,  A. F. Morrison,
 J. W. Mullinax,  K. Nanda,  T. S. Nguyen-Beck,  R. Olivares-Amaya,
 J. A. Parkhill,  S. K. Paul,  F. Pavosevic,  Zheng Pei,  T. M. Perrine,
 F. Plasser,  P. Pokhilko,  S. Prager,  A. Prociuk,  E. Ramos,  B. Rana,
 D. R. Rehn,  F. Rob,  M. Scheurer,  M. Schneider,  N. Sergueev,
 S. M. Sharada,  S. Sharma,  D. W. Small,  T. Stauch,  C. J. Stein,
 T. Stein,  Yu-Chuan Su,  S. P. Veccham,  Zhen Tao,  A. J. W. Thom,
 A. Tkatchenko,  T. Tsuchimochi,  N. M. Tubman,  L. Vogt,  M. L. Vidal,
 O. Vydrov,  M. A. Watson,  J. Wenzel,  M. de Wergifosse,  T. A. Wesolowski,
 A. White,  J. Witte,  A. Yamada,  Jun Yang,  K. Yao,  S. Yeganeh,
 S. R. Yost,  Zhi-Qiang You,  A. Zech,  Igor Ying Zhang,  Xing Zhang,
 Yan Zhao,  Ying Zhu,  B. R. Brooks,  G. K. L. Chan,  C. J. Cramer,
 M. S. Gordon,  W. J. Hehre,  A. Klamt,  M. W. Schmidt,  C. D. Sherrill,
 D. G. Truhlar,  A. Aspuru-Guzik,  R. Baer,  A. T. Bell,  N. A. Besley,
 Jeng-Da Chai,  A. E. DePrince, III,  R. A. DiStasio Jr.,  A. Dreuw,
 B. D. Dunietz,  T. R. Furlani,  Chao-Ping Hsu,  Yousung Jung,  Jing Kong,
 D. S. Lambrecht,  WanZhen Liang,  C. Ochsenfeld,  V. A. Rassolov,
 L. V. Slipchenko,  J. E. Subotnik,  T. Van Voorhis,  J. M. Herbert,
 A. I. Krylov,  P. M. W. Gill,  M. Head-Gordon

 Contributors to earlier versions of Q-Chem not listed above:
 R. D. Adamson,  B. Austin,  J. Baker,  G. J. O. Beran,  K. Brandhorst,
 S. T. Brown,  E. F. C. Byrd,  A. K. Chakraborty,  C.-L. Cheng,
 Siu Hung Chien,  D. M. Chipman,  D. L. Crittenden,  H. Dachsel,
 R. J. Doerksen,  A. D. Dutoi,  L. Fusti-Molnar,  W. A. Goddard III,
 A. Golubeva-Zadorozhnaya,  S. R. Gwaltney,  G. Hawkins,  A. Heyden,
 S. Hirata,  G. Kedziora,  F. J. Keil,  C. Kelley,  Jihan Kim,  R. A. King,
 R. Z. Khaliullin,  P. P. Korambath,  W. Kurlancheek,  A. M. Lee,  M. S. Lee,
 S. V. Levchenko,  Ching Yeh Lin,  D. Liotard,  R. C. Lochan,  I. Lotan,
 P. E. Maslen,  N. Nair,  D. P. O'Neill,  D. Neuhauser,  E. Neuscamman,
 C. M. Oana,  R. Olson,  B. Peters,  R. Peverati,  P. A. Pieniazek,
 Y. M. Rhee,  J. Ritchie,  M. A. Rohrdanz,  E. Rosta,  N. J. Russ,
 H. F. Schaefer III,  N. E. Schultz,  N. Shenvi,  A. C. Simmonett,  A. Sodt,
 D. Stuck,  K. S. Thanthiriwatte,  V. Vanovschi,  Tao Wang,  A. Warshel,
 C. F. Williams,  Q. Wu,  X. Xu,  W. Zhang

 Please cite Q-Chem as follows:
 Y. Shao et al., Mol. Phys. 113, 184-215 (2015)
 DOI: 10.1080/00268976.2014.952696

 Q-Chem 5.2.2 for Intel X86 EM64T Linux

 Parts of Q-Chem use Armadillo 9.800.1 (Horizon Scraper).
 http://arma.sourceforge.net/

 Q-Chem begins on Sun Mar  7 04:34:33 2021

Host: node026
0

     Scratch files written to /home/ymao90/scratch/CCX_CD_+6020210307030514//
The previous job contains 0 fragments, simply inherited here

Checking the input file for inconsistencies... 	...done.

--------------------------------------------------------------
User input:
--------------------------------------------------------------

$molecule
read
$end

$rem
JOBTYPE  FREQ
METHOD  B3LYP
BASIS  6-31+G(D)
SYMMETRY  FALSE
SYM_IGNORE  TRUE
MEM_TOTAL  8000
MEM_STATIC  2000
MAX_SUB_FILE_NUM  16000
BASIS_LIN_DEP_THRESH  6
THRESH  14
SCF_CONVERGENCE  9
GEN_SCFMAN  TRUE
SCF_GUESS  READ
FD_MAT_VEC_PROD  FALSE
XC_GRID  000099000590
IDERIV   1
NL_GRID  1
MAX_SCF_CYCLES  200
ISOTOPES TRUE
$end

$isotopes
1 0
1
 21 2.0141018
$end

$multipole_field
Z   -0.011669
$end
--------------------------------------------------------------

 Total energy in the final basis set =     -404.5959404292
   10    -404.5959411511      2.66e-10  Convergence criterion met
 Total energy in the final basis set =     -404.5959411511
   10    -404.5959407696      3.68e-10  Convergence criterion met
 Total energy in the final basis set =     -404.5959407696
   10    -404.5959402357      7.49e-10  Convergence criterion met
 Total energy in the final basis set =     -404.5959402357
   10    -404.5959412957      5.89e-10  Convergence criterion met
 Total energy in the final basis set =     -404.5959412957
   10    -404.5959412220      5.35e-10  Convergence criterion met
 Total energy in the final basis set =     -404.5959412220
    9    -404.5959402271      8.41e-10  Convergence criterion met
 Total energy in the final basis set =     -404.5959402271
   10    -404.5959412293      4.92e-10  Convergence criterion met
 Total energy in the final basis set =     -404.5959412293

                    Orbital Energies (a.u.)
 --------------------------------------------------------------

 Alpha MOs
 -- Occupied --
-19.1496 -14.3972 -10.3106 -10.2746 -10.2726 -10.2671 -10.2657 -10.2467
-10.2436  -1.0602  -0.9612  -0.8966  -0.8153  -0.8050  -0.6931  -0.6839
 -0.6365  -0.6272  -0.5719  -0.5408  -0.5186  -0.5140  -0.5054  -0.4693
 -0.4662  -0.4535  -0.4389  -0.4213  -0.4171  -0.4125  -0.3970  -0.3843
 -0.3765  -0.2892  -0.2835

          Ground-State Mulliken Net Atomic Charges

     Atom                 Charge (a.u.)
  ----------------------------------------
      1 C                    -0.207679
      2 C                    -0.538617
      3 C                    -0.285676
      4 C                    -0.425888
      5 C                    -0.377670
      6 C                    -0.429304
      7 H                     0.225579
      8 H                     0.231917
      9 H                     0.216353
     10 H                     0.226427
     11 H                     0.183082
     12 H                     0.180611
     13 H                     0.145306
     14 H                     0.205574
     15 H                     0.184093
     16 H                     0.180032
     17 H                     0.215991
     18 N                    -0.396365
     19 H                     0.423185
     20 C                     0.336552
     21 H                     0.205386
     22 O                    -0.498886
  ----------------------------------------
  Sum of atomic charges =     0.000000

                    Cartesian Multipole Moments
 -----------------------------------------------------------------
    Charge (ESU x 10^10)
                 0.0000
    Dipole Moment (Debye)
         X      -3.4529      Y      -0.8311      Z       3.6414
       Tot       5.0865
    Quadrupole Moments (Debye-Ang)
        XX     -56.6875     XY      -0.1863     YY     -57.4638
        XZ      -2.3217     YZ       0.2034     ZZ     -66.6479

             Standard Nuclear Orientation (Angstroms)
    I     Atom           X                Y                Z
 ----------------------------------------------------------------
    1      C      -2.4494449977     0.9726078021    -2.3151592784
    2      C      -1.6170309351    -0.2536852238    -1.8941441979
    3      C      -2.3278454249    -1.5587979754    -2.2894003880
    4      C      -2.5871539968    -1.5894335823    -3.8069253463
    5      C      -3.3770658230    -0.3561968290    -4.2804647542
    6      C      -2.7084219534     0.9551958602    -3.8318500189
    7      H      -1.7162261241    -2.4169970380    -1.9876521084
    8      H      -0.6584206898    -0.2078249720    -2.4242803238
    9      H      -3.4068890841     0.9733942686    -1.7736643826
   10      H      -1.9199361916     1.8872217155    -2.0254831071
   11      H      -1.6171483318    -1.6192702110    -4.3303344320
   12      H      -3.1209614139    -2.5109276491    -4.0801096138
   13      H      -3.4842973332    -0.3729464065    -5.3785183509
   14      H      -4.3948303616    -0.4005689800    -3.8652504514
   15      H      -1.7453425804     1.0688988192    -4.3565012973
   16      H      -3.3278943350     1.8166658049    -4.1201697952
   17      H      -3.2830802058    -1.6439194220    -1.7501310092
   18      N      -1.2456679791    -0.2230826433    -0.4878757269
   19      H      -1.9451942448    -0.3773677059     0.2302907180
   20      C       0.0291671956     0.0772732865    -0.0942189693
   21      H       0.1598550077     0.0772807330     0.9994762857
   22      O       0.9451651005     0.3185129670    -0.8742679722
 ----------------------------------------------------------------

 Frequency:        14.37                 104.73                 210.84
 Force Cnst:      0.0006                 0.0231                 0.0644
 Red. Mass:       4.7318                 3.5806                 2.4573
 IR Intens:        5.657                  3.852                 30.154
 Frequency:       226.40                 234.28                 335.05
 Force Cnst:      0.0770                 0.0635                 0.1285
 Red. Mass:       2.5482                 1.9642                 1.9424
 IR Intens:       12.461                  4.655                  0.218
 Frequency:       392.95                 408.53                 451.15
 Force Cnst:      0.3453                 0.3783                 0.3329
 Red. Mass:       3.7960                 3.8467                 2.7760
 IR Intens:       24.002                 18.434                  1.529
 Frequency:       462.32                 535.45                 547.65
 Force Cnst:      0.3223                 0.2745                 0.2064
 Red. Mass:       2.5595                 1.6252                 1.1682
 IR Intens:        5.242                  6.209                 42.628
 Frequency:       747.28                 801.52                 824.28
 Force Cnst:      1.3060                 0.5468                 1.0651
 Red. Mass:       3.9694                 1.4447                 2.6605
 IR Intens:        7.303                  0.255                  0.406
 Frequency:       846.89                 902.05                 922.14
 Force Cnst:      0.8156                 0.9744                 0.9662
 Red. Mass:       1.9301                 2.0325                 1.9284
 IR Intens:        1.517                  5.436                  0.701
 Frequency:       933.24                 971.90                1030.74
 Force Cnst:      0.7292                 1.2972                 0.9990
 Red. Mass:       1.4211                 2.3309                 1.5959
 IR Intens:        1.523                  5.858                  0.367
 Frequency:      1037.92                1066.88                1092.05
 Force Cnst:      1.1373                 0.9353                 0.7680
 Red. Mass:       1.7918                 1.3947                 1.0931
 IR Intens:        0.644                  3.134                  0.943
 Frequency:      1094.80                1098.23                1176.84
 Force Cnst:      2.3000                 2.2002                 1.7704
 Red. Mass:       3.2569                 3.0962                 2.1696
 IR Intens:        1.927                  1.372                  1.894
 Frequency:      1204.84                1212.74                1282.21
 Force Cnst:      1.7723                 1.3911                 1.2933
 Red. Mass:       2.0722                 1.6054                 1.3351
 IR Intens:       99.317                 15.026                 16.830
 Frequency:      1293.13                1294.72                1344.78
 Force Cnst:      1.2625                 1.2572                 1.3791
 Red. Mass:       1.2814                 1.2729                 1.2944
 IR Intens:        2.337                  0.973                  4.041
 Frequency:      1357.91                1371.90                1382.46
 Force Cnst:      1.3619                 1.5373                 1.5698
 Red. Mass:       1.2536                 1.3863                 1.3941
 IR Intens:       26.788                  1.587                  0.236
 Frequency:      1385.17                1399.10                1415.48
 Force Cnst:      1.6541                 1.6083                 1.7094
 Red. Mass:       1.4632                 1.3945                 1.4480
 IR Intens:        3.963                  1.609                  4.141
 Frequency:      1421.61                1503.56                1504.35
 Force Cnst:      1.4509                 1.4505                 1.4526
 Red. Mass:       1.2185                 1.0890                 1.0895
 IR Intens:       15.480                  1.376                  1.388
 Frequency:      1509.72                1514.18                1526.97
 Force Cnst:      1.4709                 1.4770                 1.5325
 Red. Mass:       1.0953                 1.0934                 1.1155
 IR Intens:        6.168                 13.471                  6.107
 Frequency:      1541.37                1747.93                2971.63
 Force Cnst:      2.3724                12.2702                 5.5636
 Red. Mass:       1.6948                 6.8164                 1.0693
 IR Intens:      180.234                339.667                 81.347
 Frequency:      2990.79                2997.73                3024.95
 Force Cnst:      5.6223                 5.6578                 5.7758
 Red. Mass:       1.0668                 1.0686                 1.0713
 IR Intens:       32.290                 96.620                 10.893
 Frequency:      3026.79                3032.20                3041.56
 Force Cnst:      5.8117                 5.8736                 5.9408
 Red. Mass:       1.0767                 1.0843                 1.0899
 IR Intens:       48.937                 21.785                 82.353
 Frequency:      3050.54                3057.22                3068.63
 Force Cnst:      5.9969                 6.0078                 5.9954
 Red. Mass:       1.0938                 1.0910                 1.0806
 IR Intens:      110.121                 47.720                 16.396
 Frequency:      3090.93                3096.92                3588.25
 Force Cnst:      6.1761                 6.2073                 8.1835
 Red. Mass:       1.0972                 1.0985                 1.0788
 IR Intens:       28.847                 23.575                 36.091
 Frequency:        14.43                 104.01                 190.95
 Force Cnst:      0.0006                 0.0230                 0.0605
 Red. Mass:       4.7290                 3.6007                 2.8147
 IR Intens:        5.688                  3.766                 31.777
 Frequency:       223.61                 233.41                 334.90
 Force Cnst:      0.0902                 0.0605                 0.1288
 Red. Mass:       3.0613                 1.8861                 1.9493
 IR Intens:        6.479                  1.137                  0.188
 Frequency:       386.92                 404.11                 449.88
 Force Cnst:      0.3631                 0.3886                 0.3398
 Red. Mass:       4.1162                 4.0389                 2.8498
 IR Intens:       16.753                 15.562                  0.433
 Frequency:       461.53                 531.51                 535.09
 Force Cnst:      0.3118                 0.2255                 0.2250
 Red. Mass:       2.4840                 1.3549                 1.3337
 IR Intens:        2.545                 32.012                 32.779
 Frequency:       738.37                 801.50                 822.00
 Force Cnst:      1.2652                 0.5469                 1.0394
 Red. Mass:       3.9389                 1.4449                 2.6110
 IR Intens:        7.164                  0.253                  0.375
 Frequency:       845.94                 867.86                 902.07
 Force Cnst:      0.8307                 1.7865                 0.9722
 Red. Mass:       1.9703                 4.0257                 2.0279
 IR Intens:        1.681                  0.100                  5.416
 Frequency:       920.32                 933.19                 946.01
 Force Cnst:      0.9775                 0.7289                 1.2288
 Red. Mass:       1.9589                 1.4205                 2.3305
 IR Intens:        0.965                  1.693                  6.662
 Frequency:      1017.47                1038.65                1066.36
 Force Cnst:      1.3415                 1.1638                 0.9459
 Red. Mass:       2.1994                 1.8310                 1.4118
 IR Intens:        0.408                  0.450                  2.860
 Frequency:      1092.02                1097.33                1141.20
 Force Cnst:      0.7426                 2.2157                 2.7163
 Red. Mass:       1.0569                 3.1231                 3.5399
 IR Intens:        0.514                  1.242                 11.516
 Frequency:      1182.94                1209.17                1212.19
 Force Cnst:      2.1037                 1.8094                 1.4348
 Red. Mass:       2.5516                 2.1005                 1.6573
 IR Intens:        5.906                 73.742                 21.963
 Frequency:      1282.14                1292.88                1294.65
 Force Cnst:      1.2962                 1.2570                 1.2548
 Red. Mass:       1.3383                 1.2763                 1.2706
 IR Intens:       14.707                  1.849                  0.907
 Frequency:      1344.58                1357.05                1371.88
 Force Cnst:      1.3744                 1.3516                 1.5373
 Red. Mass:       1.2903                 1.2457                 1.3864
 IR Intens:        4.217                 24.175                  1.549
 Frequency:      1382.45                1385.17                1399.05
 Force Cnst:      1.5696                 1.6542                 1.6090
 Red. Mass:       1.3939                 1.4633                 1.3952
 IR Intens:        0.229                  4.031                  1.568
 Frequency:      1414.55                1503.56                1504.34
 Force Cnst:      1.6937                 1.4505                 1.4526
 Red. Mass:       1.4366                 1.0890                 1.0894
 IR Intens:        3.626                  1.464                  1.478
 Frequency:      1509.71                1514.12                1526.62
 Force Cnst:      1.4710                 1.4796                 1.5531
 Red. Mass:       1.0954                 1.0954                 1.1311
 IR Intens:        6.165                 13.756                 11.739
 Frequency:      1537.40                1722.13                2267.65
 Force Cnst:      2.2278                14.3481                 7.4172
 Red. Mass:       1.5998                 8.2113                 2.4481
 IR Intens:      151.145                374.145                 39.980
 Frequency:      2971.64                2990.79                2997.72
 Force Cnst:      5.5636                 5.6223                 5.6578
 Red. Mass:       1.0693                 1.0668                 1.0686
 IR Intens:       81.166                 32.294                 96.531
 Frequency:      3024.95                3026.80                3032.21
 Force Cnst:      5.7758                 5.8117                 5.8735
 Red. Mass:       1.0713                 1.0767                 1.0842
 IR Intens:       11.036                 49.597                 20.522
 Frequency:      3041.56                3050.65                3068.32
 Force Cnst:      5.9408                 5.9969                 5.9928
 Red. Mass:       1.0899                 1.0937                 1.0804
 IR Intens:       82.361                113.871                 25.607
 Frequency:      3090.93                3096.91                3588.20
 Force Cnst:      6.1761                 6.2074                 8.1832
 Red. Mass:       1.0972                 1.0985                 1.0787
 IR Intens:       28.922                 23.711                 36.415

 STANDARD THERMODYNAMIC QUANTITIES AT   298.18 K  AND     1.00 ATM

   This Molecule has  0 Imaginary Frequencies
   Zero point vibrational energy:      121.936 kcal/mol

   Atom    1 Element C  Has Mass   12.00000
   Atom    2 Element C  Has Mass   12.00000
   Atom    3 Element C  Has Mass   12.00000
   Atom    4 Element C  Has Mass   12.00000
   Atom    5 Element C  Has Mass   12.00000
   Atom    6 Element C  Has Mass   12.00000
   Atom    7 Element H  Has Mass    1.00783
   Atom    8 Element H  Has Mass    1.00783
   Atom    9 Element H  Has Mass    1.00783
   Atom   10 Element H  Has Mass    1.00783
   Atom   11 Element H  Has Mass    1.00783
   Atom   12 Element H  Has Mass    1.00783
   Atom   13 Element H  Has Mass    1.00783
   Atom   14 Element H  Has Mass    1.00783
   Atom   15 Element H  Has Mass    1.00783
   Atom   16 Element H  Has Mass    1.00783
   Atom   17 Element H  Has Mass    1.00783
   Atom   18 Element N  Has Mass   14.00307
   Atom   19 Element H  Has Mass    1.00783
   Atom   20 Element C  Has Mass   12.00000
   Atom   21 Element H  Has Mass    2.01410
   Atom   22 Element O  Has Mass   15.99491
   Molecular Mass:   128.106042 amu
   Principal axes and moments of inertia in amu*Bohr^2:
                             1           2           3
    Eigenvalues --      561.68430  1947.95519  2139.63427
          X               0.66353     0.00771     0.74811
          Y               0.10997     0.98808    -0.10772
          Z               0.74002    -0.15375    -0.65478
   Rotational Symmetry Number is   1
   The Molecule is an Asymmetric Top
   Translational Enthalpy:        0.889 kcal/mol
   Rotational Enthalpy:           0.889 kcal/mol
   Vibrational Enthalpy:        125.755 kcal/mol
   gas constant (RT):             0.593 kcal/mol
   Translational Entropy:        40.457  cal/mol.K
   Rotational Entropy:           29.239  cal/mol.K
   Vibrational Entropy:          24.911  cal/mol.K

   Total Enthalpy:              128.125 kcal/mol
   Total Entropy:                94.607  cal/mol.K

 Total job time:  5307.95s(wall), 83223.46s(cpu)
        *  Thank you very much for using Q-Chem.  Have a nice day.  *
