 Q-Chem 5.2 (devel), Q-Chem, Inc., Pleasanton, CA (2019)
 Q-Chem 5.2.2 for Intel X86 EM64T Linux

User input:
--------------------------------------------------------------
$molecule
0 1
C     -2.4083508923    0.9984834764   -2.3662547437
C     -1.5543120384   -0.2118403749   -1.9459885704
C     -2.2384976761   -1.5367925874   -2.3261896725
C     -2.5867463449   -1.5816552836   -3.8234193167
C     -3.4377297730   -0.3731774783   -4.2445934317
C     -2.7551397527    0.9499468362   -3.8636626912
H     -1.5849547626   -2.3750094827   -2.0545927530
H     -0.5831065672   -0.1532425547   -2.4485260558
H     -3.3388117820    1.0024650072   -1.7759883684
H     -1.8720534969    1.9234708349   -2.1213670712
H     -1.6555784977   -1.5918293252   -4.4093866053
H     -3.1102152921   -2.5181807775   -4.0551406051
H     -3.6290653549   -0.4033428377   -5.3251377272
H     -4.4201020066   -0.4306546907   -3.7508934023
H     -1.8320207629    1.0648782183   -4.4511997179
H     -3.3973970401    1.8010825553   -4.1242295555
H     -3.1618885583   -1.6469527918   -1.7346449512
N     -1.2474445251   -0.1731895513   -0.5151412109
H     -2.0131265263   -0.2687147311    0.1418849346
C      0.0000000000    0.0000000000    0.0000000000
H      0.0000000000    0.0000000000    1.1070732462
O      1.0278769477    0.1402881570   -0.6492362509
$end

$rem
JOBTYPE  OPT
METHOD  B3LYP
BASIS  6-31+G(D)
SYMMETRY  FALSE
SYM_IGNORE  TRUE
MEM_TOTAL  8000
MEM_STATIC  2000
MAX_SUB_FILE_NUM  16000
BASIS_LIN_DEP_THRESH  6
THRESH  14
SCF_CONVERGENCE  9
GEN_SCFMAN  TRUE
SCF_GUESS  SAD
FD_MAT_VEC_PROD  FALSE
XC_GRID  000099000590
NL_GRID  1
MAX_SCF_CYCLES  200
GEOM_OPT_TOL_GRADIENT  100
GEOM_OPT_TOL_DISPLACEMENT  100
GEOM_OPT_TOL_ENERGY  10
SOLVENT_METHOD       PCM
$end

$PCM
THEORY                     CPCM
METHOD                     SWIG
SOLVER                     INVERSION
HPOINTS                    302
HEAVYPOINTS                302
$END

$SOLVENT
DIELECTRIC                 62.0
$END

$multipole_field
Z   -0.003890
$end

--------------------------------------------------------------

   15    -404.6036337932      4.27e-10  Convergence criterion met
 Total energy in the final basis set =     -404.6036337932
   13    -404.6042136814      5.51e-10  Convergence criterion met
 Total energy in the final basis set =     -404.6042136814
   13    -404.6042821961      5.39e-10  Convergence criterion met
 Total energy in the final basis set =     -404.6042821961
   13    -404.6042603358      5.33e-10  Convergence criterion met
 Total energy in the final basis set =     -404.6042603358
   13    -404.6042867220      5.34e-10  Convergence criterion met
 Total energy in the final basis set =     -404.6042867220
   13    -404.6042869352      5.36e-10  Convergence criterion met
 Total energy in the final basis set =     -404.6042869352
   13    -404.6042874414      5.37e-10  Convergence criterion met
 Total energy in the final basis set =     -404.6042874414
   13    -404.6042883801      5.40e-10  Convergence criterion met
 **  OPTIMIZATION CONVERGED  **
 Total job time:  907.96s(wall), 13019.39s(cpu)
        *  Thank you very much for using Q-Chem.  Have a nice day.  *

User input: 2 of 2

                  Welcome to Q-Chem
     A Quantum Leap Into The Future Of Chemistry

 Q-Chem 5.2 (devel), Q-Chem, Inc., Pleasanton, CA (2019)

 Yihan Shao,  Zhengting Gan,  E. Epifanovsky,  A. T. B. Gilbert,  M. Wormit,
 J. Kussmann,  A. W. Lange,  A. Behn,  Jia Deng,  Xintian Feng,  D. Ghosh,
 M. Goldey,  P. R. Horn,  L. D. Jacobson,  I. Kaliman,  T. Kus,  A. Landau,
 Jie Liu,  E. I. Proynov,  R. M. Richard,  R. P. Steele,  E. J. Sundstrom,
 H. L. Woodcock III,  P. M. Zimmerman,  D. Zuev,  B. Alam,  B. Albrecht,
 E. Alguire,  S. A. Baeppler,  D. Barton,  Z. Benda,  Y. A. Bernard,
 E. J. Berquist,  K. B. Bravaya,  H. Burton,  K. Carter-Fenk,  D. Casanova,
 Chun-Min Chang,  Yunqing Chen,  A. Chien,  K. D. Closser,  M. P. Coons,
 S. Coriani,  S. Dasgupta,  A. L. Dempwolff,  M. Diedenhofen,  Hainam Do,
 R. G. Edgar,  Po-Tung Fang,  S. Faraji,  S. Fatehi,  Qingguo Feng,
 J. Fosso-Tande,  J. Gayvert,  Qinghui Ge,  A. Ghysels,  G. Gidofalvi,
 J. Gomes,  J. Gonthier,  A. Gunina,  D. Hait,  M. W. D. Hanson-Heine,
 P. H. P. Harbach,  A. W. Hauser,  M. F. Herbst,  J. E. Herr,
 E. G. Hohenstein,  Z. C. Holden,  Kerwin Hui,  B. C. Huynh,  T.-C. Jagau,
 Hyunjun Ji,  B. Kaduk,  K. Khistyaev,  Jaehoon Kim,  P. Klunzinger,  K. Koh,
 D. Kosenkov,  L. Koulias,  T. Kowalczyk,  C. M. Krauter,  A. Kunitsa,
 Ka Un Lao,  A. Laurent,  K. V. Lawler,  Joonho Lee,  D. Lefrancois,
 S. Lehtola,  D. S. Levine,  Yi-Pei Li,  You-Sheng Lin,  Fenglai Liu,
 Kuan-Yu Liu,  E. Livshits,  M. Loipersberger,  A. Luenser,  P. Manohar,
 E. Mansoor,  S. F. Manzer,  Shan-Ping Mao,  Yuezhi Mao,  N. Mardirossian,
 A. V. Marenich,  T. Markovich,  L. A. Martinez-Martinez,  S. A. Maurer,
 N. J. Mayhall,  S. C. McKenzie,  J.-M. Mewes,  P. Morgante,  A. F. Morrison,
 J. W. Mullinax,  K. Nanda,  T. S. Nguyen-Beck,  R. Olivares-Amaya,
 J. A. Parkhill,  S. K. Paul,  F. Pavosevic,  Zheng Pei,  T. M. Perrine,
 F. Plasser,  P. Pokhilko,  S. Prager,  A. Prociuk,  E. Ramos,  B. Rana,
 D. R. Rehn,  F. Rob,  M. Scheurer,  M. Schneider,  N. Sergueev,
 S. M. Sharada,  S. Sharma,  D. W. Small,  T. Stauch,  C. J. Stein,
 T. Stein,  Yu-Chuan Su,  S. P. Veccham,  Zhen Tao,  A. J. W. Thom,
 A. Tkatchenko,  T. Tsuchimochi,  N. M. Tubman,  L. Vogt,  M. L. Vidal,
 O. Vydrov,  M. A. Watson,  J. Wenzel,  M. de Wergifosse,  T. A. Wesolowski,
 A. White,  J. Witte,  A. Yamada,  Jun Yang,  K. Yao,  S. Yeganeh,
 S. R. Yost,  Zhi-Qiang You,  A. Zech,  Igor Ying Zhang,  Xing Zhang,
 Yan Zhao,  Ying Zhu,  B. R. Brooks,  G. K. L. Chan,  C. J. Cramer,
 M. S. Gordon,  W. J. Hehre,  A. Klamt,  M. W. Schmidt,  C. D. Sherrill,
 D. G. Truhlar,  A. Aspuru-Guzik,  R. Baer,  A. T. Bell,  N. A. Besley,
 Jeng-Da Chai,  A. E. DePrince, III,  R. A. DiStasio Jr.,  A. Dreuw,
 B. D. Dunietz,  T. R. Furlani,  Chao-Ping Hsu,  Yousung Jung,  Jing Kong,
 D. S. Lambrecht,  WanZhen Liang,  C. Ochsenfeld,  V. A. Rassolov,
 L. V. Slipchenko,  J. E. Subotnik,  T. Van Voorhis,  J. M. Herbert,
 A. I. Krylov,  P. M. W. Gill,  M. Head-Gordon

 Contributors to earlier versions of Q-Chem not listed above:
 R. D. Adamson,  B. Austin,  J. Baker,  G. J. O. Beran,  K. Brandhorst,
 S. T. Brown,  E. F. C. Byrd,  A. K. Chakraborty,  C.-L. Cheng,
 Siu Hung Chien,  D. M. Chipman,  D. L. Crittenden,  H. Dachsel,
 R. J. Doerksen,  A. D. Dutoi,  L. Fusti-Molnar,  W. A. Goddard III,
 A. Golubeva-Zadorozhnaya,  S. R. Gwaltney,  G. Hawkins,  A. Heyden,
 S. Hirata,  G. Kedziora,  F. J. Keil,  C. Kelley,  Jihan Kim,  R. A. King,
 R. Z. Khaliullin,  P. P. Korambath,  W. Kurlancheek,  A. M. Lee,  M. S. Lee,
 S. V. Levchenko,  Ching Yeh Lin,  D. Liotard,  R. C. Lochan,  I. Lotan,
 P. E. Maslen,  N. Nair,  D. P. O'Neill,  D. Neuhauser,  E. Neuscamman,
 C. M. Oana,  R. Olson,  B. Peters,  R. Peverati,  P. A. Pieniazek,
 Y. M. Rhee,  J. Ritchie,  M. A. Rohrdanz,  E. Rosta,  N. J. Russ,
 H. F. Schaefer III,  N. E. Schultz,  N. Shenvi,  A. C. Simmonett,  A. Sodt,
 D. Stuck,  K. S. Thanthiriwatte,  V. Vanovschi,  Tao Wang,  A. Warshel,
 C. F. Williams,  Q. Wu,  X. Xu,  W. Zhang

 Please cite Q-Chem as follows:
 Y. Shao et al., Mol. Phys. 113, 184-215 (2015)
 DOI: 10.1080/00268976.2014.952696

 Q-Chem 5.2.2 for Intel X86 EM64T Linux

 Parts of Q-Chem use Armadillo 9.800.1 (Horizon Scraper).
 http://arma.sourceforge.net/

 Q-Chem begins on Sun Aug  8 22:42:46 2021

Host: node026
0

     Scratch files written to /home/ymao90/scratch/CCX_CD_+20_GLY_6220210808222737//
The previous job contains 0 fragments, simply inherited here
Symmetry turned off for PCM/SM12/SMD calculation

Checking the input file for inconsistencies... 	...done.

--------------------------------------------------------------
User input:
--------------------------------------------------------------

$molecule
read
$end

$rem
JOBTYPE  FREQ
METHOD  B3LYP
BASIS  6-31+G(D)
SYMMETRY  FALSE
SYM_IGNORE  TRUE
MEM_TOTAL  8000
MEM_STATIC  2000
MAX_SUB_FILE_NUM  16000
BASIS_LIN_DEP_THRESH  6
THRESH  14
SCF_CONVERGENCE  9
GEN_SCFMAN  TRUE
SCF_GUESS  READ
FD_MAT_VEC_PROD  FALSE
XC_GRID  000099000590
IDERIV   1
NL_GRID  1
MAX_SCF_CYCLES  200
ISOTOPES TRUE
SOLVENT_METHOD       PCM
$end

$PCM
THEORY                     CPCM
METHOD                     SWIG
SOLVER                     INVERSION
HPOINTS                    302
HEAVYPOINTS                302
$END

$SOLVENT
DIELECTRIC                 62.0
$END

$isotopes
1 0
1
 21 2.0141018
$end

$multipole_field
Z   -0.003890
$end
--------------------------------------------------------------

 Total energy in the final basis set =     -404.6042893282
   13    -404.6042896867      5.38e-10  Convergence criterion met
 Total energy in the final basis set =     -404.6042896867
   13    -404.6042893565      5.40e-10  Convergence criterion met
 Total energy in the final basis set =     -404.6042893565
   13    -404.6042890556      5.37e-10  Convergence criterion met
 Total energy in the final basis set =     -404.6042890556
   13    -404.6042900234      5.39e-10  Convergence criterion met
 Total energy in the final basis set =     -404.6042900234
   13    -404.6042899878      5.38e-10  Convergence criterion met
 Total energy in the final basis set =     -404.6042899878
   13    -404.6042893527      5.38e-10  Convergence criterion met
 Total energy in the final basis set =     -404.6042893527
   13    -404.6042898774      5.39e-10  Convergence criterion met
 Total energy in the final basis set =     -404.6042898774

                    Orbital Energies (a.u.)
 --------------------------------------------------------------

 Alpha MOs
 -- Occupied --
-19.1396 -14.3764 -10.2969 -10.2387 -10.2077 -10.2070 -10.2068 -10.1994
-10.1987  -1.0432  -0.9388  -0.8453  -0.7626  -0.7610  -0.6519  -0.6325
 -0.5999  -0.5847  -0.5366  -0.4986  -0.4770  -0.4622  -0.4598  -0.4314
 -0.4280  -0.4140  -0.4002  -0.3878  -0.3661  -0.3650  -0.3462  -0.3345
 -0.3299  -0.2758  -0.2687

          Ground-State Mulliken Net Atomic Charges

     Atom                 Charge (a.u.)
  ----------------------------------------
      1 C                    -0.249901
      2 C                    -0.446724
      3 C                    -0.298536
      4 C                    -0.451167
      5 C                    -0.377278
      6 C                    -0.458054
      7 H                     0.217742
      8 H                     0.218389
      9 H                     0.225551
     10 H                     0.215217
     11 H                     0.195257
     12 H                     0.196645
     13 H                     0.175897
     14 H                     0.210329
     15 H                     0.194876
     16 H                     0.196023
     17 H                     0.226012
     18 N                    -0.387049
     19 H                     0.464428
     20 C                     0.349903
     21 H                     0.211424
     22 O                    -0.628984
  ----------------------------------------
  Sum of atomic charges =     0.000000

                    Cartesian Multipole Moments
 -----------------------------------------------------------------
    Charge (ESU x 10^10)
                 0.0000
    Dipole Moment (Debye)
         X      -5.6827      Y      -1.1231      Z       2.1639
       Tot       6.1836
    Quadrupole Moments (Debye-Ang)
        XX     -53.6911     XY       0.2031     YY     -57.1198
        XZ       2.5391     YZ       0.7215     ZZ     -58.3790

             Standard Nuclear Orientation (Angstroms)
    I     Atom           X                Y                Z
 ----------------------------------------------------------------
    1      C      -2.4150805718     0.9847841229    -2.3459117613
    2      C      -1.5697978575    -0.2351007906    -1.9358658919
    3      C      -2.2748259250    -1.5486469919    -2.3133719398
    4      C      -2.5931874017    -1.5853748092    -3.8179802246
    5      C      -3.4177232812    -0.3633938300    -4.2563487867
    6      C      -2.7323888476     0.9520449231    -3.8504176673
    7      H      -1.6412128887    -2.3993313216    -2.0336587163
    8      H      -0.6103854991    -0.1877554536    -2.4621476337
    9      H      -3.3508084461     0.9810034472    -1.7683690476
   10      H      -1.8793427192     1.9057160729    -2.0846493228
   11      H      -1.6479190934    -1.6060926024    -4.3833181928
   12      H      -3.1274137392    -2.5135329843    -4.0615319146
   13      H      -3.5794663355    -0.3865643061    -5.3442235045
   14      H      -4.4110662633    -0.4117474181    -3.7862628938
   15      H      -1.7941388912     1.0620763889    -4.4172294655
   16      H      -3.3645497936     1.8101101009    -4.1159720730
   17      H      -3.2063238508    -1.6362834437    -1.7352519404
   18      N      -1.2371351732    -0.2028555186    -0.5122531872
   19      H      -1.9818272077    -0.3453344507     0.1639420518
   20      C      -0.0052192525     0.0449302956    -0.0279659114
   21      H       0.0376242419     0.0352589913     1.0714616836
   22      O       1.0035240942     0.2621221967    -0.7193081805
 ----------------------------------------------------------------

 Frequency:        17.27                 102.49                 199.49
 Force Cnst:      0.0008                 0.0222                 0.0547
 Red. Mass:       4.7615                 3.5831                 2.3334
 IR Intens:       14.418                  8.076                 59.330
 Frequency:       218.97                 229.47                 333.07
 Force Cnst:      0.0913                 0.0563                 0.1249
 Red. Mass:       3.2330                 1.8155                 1.9108
 IR Intens:       17.325                  0.581                  0.229
 Frequency:       396.24                 411.33                 451.29
 Force Cnst:      0.3371                 0.3706                 0.2843
 Red. Mass:       3.6437                 3.7180                 2.3695
 IR Intens:       17.554                 32.553                  1.243
 Frequency:       465.62                 531.89                 596.27
 Force Cnst:      0.4217                 0.2720                 0.2401
 Red. Mass:       3.3013                 1.6320                 1.1461
 IR Intens:       13.178                  2.944                104.105
 Frequency:       745.15                 799.93                 822.15
 Force Cnst:      1.3448                 0.5437                 0.9934
 Red. Mass:       4.1109                 1.4420                 2.4945
 IR Intens:        8.342                  0.246                  0.772
 Frequency:       847.94                 900.94                 918.22
 Force Cnst:      0.8314                 0.8925                 0.9594
 Red. Mass:       1.9626                 1.8663                 1.9313
 IR Intens:        3.306                 15.500                  1.252
 Frequency:       933.62                 966.93                1034.21
 Force Cnst:      0.7645                 1.2912                 1.0017
 Red. Mass:       1.4886                 2.3440                 1.5895
 IR Intens:        1.082                  8.874                  0.088
 Frequency:      1034.98                1062.29                1081.41
 Force Cnst:      1.1066                 0.9165                 2.6006
 Red. Mass:       1.7534                 1.3785                 3.7743
 IR Intens:        1.602                  3.461                 19.279
 Frequency:      1089.43                1101.63                1174.59
 Force Cnst:      0.7768                 1.8870                 1.8889
 Red. Mass:       1.1109                 2.6391                 2.3238
 IR Intens:        0.049                  2.415                  4.493
 Frequency:      1208.06                1240.56                1274.71
 Force Cnst:      1.2970                 1.6222                 1.2576
 Red. Mass:       1.5083                 1.7890                 1.3136
 IR Intens:        1.498                 73.133                 19.044
 Frequency:      1287.04                1294.11                1341.31
 Force Cnst:      1.2357                 1.3652                 1.3570
 Red. Mass:       1.2662                 1.3836                 1.2802
 IR Intens:        2.002                  9.690                  3.863
 Frequency:      1347.77                1372.38                1381.74
 Force Cnst:      1.3255                 1.5418                 1.6192
 Red. Mass:       1.2385                 1.3894                 1.4395
 IR Intens:       16.397                  2.086                  0.076
 Frequency:      1384.38                1386.16                1407.05
 Force Cnst:      1.6774                 1.6026                 1.7342
 Red. Mass:       1.4855                 1.4156                 1.4868
 IR Intens:        7.897                  2.290                  0.840
 Frequency:      1419.27                1493.81                1494.56
 Force Cnst:      1.5074                 1.4312                 1.4304
 Red. Mass:       1.2702                 1.0886                 1.0869
 IR Intens:       83.387                  0.339                  4.382
 Frequency:      1498.80                1500.13                1511.98
 Force Cnst:      1.4533                 1.4519                 1.4832
 Red. Mass:       1.0980                 1.0950                 1.1012
 IR Intens:        8.151                 10.126                  0.476
 Frequency:      1558.93                1680.88                3000.63
 Force Cnst:      2.6952                 8.6283                 5.6599
 Red. Mass:       1.8823                 5.1832                 1.0669
 IR Intens:      348.677                738.346                 80.565
 Frequency:      3001.53                3011.08                3028.57
 Force Cnst:      5.6635                 5.6810                 5.7510
 Red. Mass:       1.0670                 1.0635                 1.0642
 IR Intens:       46.020                 91.525                  7.639
 Frequency:      3031.07                3044.00                3053.04
 Force Cnst:      5.7695                 5.9912                 6.0097
 Red. Mass:       1.0658                 1.0974                 1.0943
 IR Intens:       57.114                119.351                136.908
 Frequency:      3058.28                3065.15                3071.65
 Force Cnst:      6.0378                 6.0264                 6.0559
 Red. Mass:       1.0957                 1.0887                 1.0894
 IR Intens:      164.387                 76.876                 15.450
 Frequency:      3078.53                3090.49                3576.45
 Force Cnst:      6.1505                 6.1563                 8.1317
 Red. Mass:       1.1015                 1.0940                 1.0790
 IR Intens:       56.793                 93.878                 88.951
 Frequency:        17.24                 101.81                 179.55
 Force Cnst:      0.0008                 0.0220                 0.0538
 Red. Mass:       4.7646                 3.6029                 2.8300
 IR Intens:       14.452                  7.855                 52.333
 Frequency:       217.49                 229.42                 332.90
 Force Cnst:      0.0961                 0.0562                 0.1253
 Red. Mass:       3.4482                 1.8115                 1.9196
 IR Intens:       11.578                  0.396                  0.204
 Frequency:       390.74                 405.12                 450.57
 Force Cnst:      0.3387                 0.3915                 0.2957
 Red. Mass:       3.7652                 4.0482                 2.4724
 IR Intens:       15.230                 23.054                  0.851
 Frequency:       461.57                 529.24                 587.49
 Force Cnst:      0.3797                 0.2690                 0.2301
 Red. Mass:       3.0250                 1.6302                 1.1317
 IR Intens:        3.974                  2.328                127.455
 Frequency:       735.93                 799.93                 820.02
 Force Cnst:      1.3022                 0.5437                 0.9759
 Red. Mass:       4.0807                 1.4421                 2.4632
 IR Intens:        8.085                  0.243                  0.572
 Frequency:       847.01                 868.64                 900.95
 Force Cnst:      0.8441                 1.7875                 0.8905
 Red. Mass:       1.9970                 4.0208                 1.8619
 IR Intens:        3.812                  0.879                 15.343
 Frequency:       916.42                 933.62                 944.23
 Force Cnst:      0.9777                 0.7650                 1.2165
 Red. Mass:       1.9758                 1.4895                 2.3159
 IR Intens:        1.825                  1.257                  9.231
 Frequency:      1020.20                1035.58                1061.35
 Force Cnst:      1.3820                 1.1369                 0.9293
 Red. Mass:       2.2536                 1.7993                 1.4002
 IR Intens:        5.131                  1.268                  3.179
 Frequency:      1089.36                1101.15                1126.56
 Force Cnst:      0.7709                 1.9245                 2.5829
 Red. Mass:       1.1026                 2.6939                 3.4542
 IR Intens:        0.054                  2.111                 28.279
 Frequency:      1178.47                1207.74                1243.08
 Force Cnst:      2.0749                 1.3007                 1.9030
 Red. Mass:       2.5357                 1.5135                 2.0902
 IR Intens:       17.076                  1.129                 55.493
 Frequency:      1274.31                1287.03                1293.00
 Force Cnst:      1.2536                 1.2358                 1.3477
 Red. Mass:       1.3102                 1.2663                 1.3682
 IR Intens:       16.086                  1.951                  5.123
 Frequency:      1341.04                1346.93                1372.34
 Force Cnst:      1.3484                 1.3159                 1.5416
 Red. Mass:       1.2726                 1.2310                 1.3893
 IR Intens:        4.245                 13.797                  2.000
 Frequency:      1381.74                1384.36                1386.09
 Force Cnst:      1.6185                 1.6759                 1.6029
 Red. Mass:       1.4389                 1.4842                 1.4160
 IR Intens:        0.073                  7.412                  2.233
 Frequency:      1406.45                1493.81                1494.55
 Force Cnst:      1.7184                 1.4312                 1.4303
 Red. Mass:       1.4744                 1.0886                 1.0868
 IR Intens:        0.758                  0.347                  4.369
 Frequency:      1498.80                1500.13                1511.95
 Force Cnst:      1.4532                 1.4519                 1.4834
 Red. Mass:       1.0980                 1.0950                 1.1014
 IR Intens:        8.102                 10.021                  0.670
 Frequency:      1553.15                1655.47                2267.92
 Force Cnst:      2.5244                13.0947                 7.2961
 Red. Mass:       1.7762                 8.1097                 2.4076
 IR Intens:      295.301                856.989                 66.965
 Frequency:      3000.63                3001.53                3011.08
 Force Cnst:      5.6599                 5.6635                 5.6810
 Red. Mass:       1.0669                 1.0670                 1.0635
 IR Intens:       80.424                 46.008                 91.155
 Frequency:      3028.57                3031.08                3044.00
 Force Cnst:      5.7510                 5.7695                 5.9912
 Red. Mass:       1.0642                 1.0658                 1.0974
 IR Intens:        7.689                 58.210                117.410
 Frequency:      3053.04                3058.29                3071.47
 Force Cnst:      6.0097                 6.0377                 6.0540
 Red. Mass:       1.0943                 1.0956                 1.0892
 IR Intens:      136.927                168.046                 19.354
 Frequency:      3078.53                3090.43                3576.41
 Force Cnst:      6.1505                 6.1565                 8.1313
 Red. Mass:       1.1015                 1.0941                 1.0790
 IR Intens:       56.757                 98.886                 89.635

 STANDARD THERMODYNAMIC QUANTITIES AT   298.18 K  AND     1.00 ATM

   This Molecule has  0 Imaginary Frequencies
   Zero point vibrational energy:      121.839 kcal/mol

   Atom    1 Element C  Has Mass   12.00000
   Atom    2 Element C  Has Mass   12.00000
   Atom    3 Element C  Has Mass   12.00000
   Atom    4 Element C  Has Mass   12.00000
   Atom    5 Element C  Has Mass   12.00000
   Atom    6 Element C  Has Mass   12.00000
   Atom    7 Element H  Has Mass    1.00783
   Atom    8 Element H  Has Mass    1.00783
   Atom    9 Element H  Has Mass    1.00783
   Atom   10 Element H  Has Mass    1.00783
   Atom   11 Element H  Has Mass    1.00783
   Atom   12 Element H  Has Mass    1.00783
   Atom   13 Element H  Has Mass    1.00783
   Atom   14 Element H  Has Mass    1.00783
   Atom   15 Element H  Has Mass    1.00783
   Atom   16 Element H  Has Mass    1.00783
   Atom   17 Element H  Has Mass    1.00783
   Atom   18 Element N  Has Mass   14.00307
   Atom   19 Element H  Has Mass    1.00783
   Atom   20 Element C  Has Mass   12.00000
   Atom   21 Element H  Has Mass    2.01410
   Atom   22 Element O  Has Mass   15.99491
   Molecular Mass:   128.106042 amu
   Principal axes and moments of inertia in amu*Bohr^2:
                             1           2           3
    Eigenvalues --      547.28043  1995.09646  2193.62775
          X               0.66128    -0.01802     0.74992
          Y               0.09887     0.99308    -0.06332
          Z               0.74359    -0.11602    -0.65849
   Rotational Symmetry Number is   1
   The Molecule is an Asymmetric Top
   Translational Enthalpy:        0.889 kcal/mol
   Rotational Enthalpy:           0.889 kcal/mol
   Vibrational Enthalpy:        125.660 kcal/mol
   gas constant (RT):             0.593 kcal/mol
   Translational Entropy:        40.457  cal/mol.K
   Rotational Entropy:           29.262  cal/mol.K
   Vibrational Entropy:          24.702  cal/mol.K

   Total Enthalpy:              128.030 kcal/mol
   Total Entropy:                94.420  cal/mol.K

 Total job time:  9575.37s(wall), 137216.51s(cpu)
        *  Thank you very much for using Q-Chem.  Have a nice day.  *
