 Q-Chem 5.2 (devel), Q-Chem, Inc., Pleasanton, CA (2019)
 Q-Chem 5.2.2 for Intel X86 EM64T Linux

User input:
--------------------------------------------------------------
$molecule
0 1
C     -2.4083508923    0.9984834764   -2.3662547437
C     -1.5543120384   -0.2118403749   -1.9459885704
C     -2.2384976761   -1.5367925874   -2.3261896725
C     -2.5867463449   -1.5816552836   -3.8234193167
C     -3.4377297730   -0.3731774783   -4.2445934317
C     -2.7551397527    0.9499468362   -3.8636626912
H     -1.5849547626   -2.3750094827   -2.0545927530
H     -0.5831065672   -0.1532425547   -2.4485260558
H     -3.3388117820    1.0024650072   -1.7759883684
H     -1.8720534969    1.9234708349   -2.1213670712
H     -1.6555784977   -1.5918293252   -4.4093866053
H     -3.1102152921   -2.5181807775   -4.0551406051
H     -3.6290653549   -0.4033428377   -5.3251377272
H     -4.4201020066   -0.4306546907   -3.7508934023
H     -1.8320207629    1.0648782183   -4.4511997179
H     -3.3973970401    1.8010825553   -4.1242295555
H     -3.1618885583   -1.6469527918   -1.7346449512
N     -1.2474445251   -0.1731895513   -0.5151412109
H     -2.0131265263   -0.2687147311    0.1418849346
C      0.0000000000    0.0000000000    0.0000000000
H      0.0000000000    0.0000000000    1.1070732462
O      1.0278769477    0.1402881570   -0.6492362509
$end

$rem
JOBTYPE  OPT
METHOD  B3LYP
BASIS  6-31+G(D)
SYMMETRY  FALSE
SYM_IGNORE  TRUE
MEM_TOTAL  8000
MEM_STATIC  2000
MAX_SUB_FILE_NUM  16000
BASIS_LIN_DEP_THRESH  6
THRESH  14
SCF_CONVERGENCE  9
GEN_SCFMAN  TRUE
SCF_GUESS  SAD
FD_MAT_VEC_PROD  FALSE
XC_GRID  000099000590
NL_GRID  1
MAX_SCF_CYCLES  200
GEOM_OPT_TOL_GRADIENT  100
GEOM_OPT_TOL_DISPLACEMENT  100
GEOM_OPT_TOL_ENERGY  10
$end

$multipole_field
Z   -0.007779
$end

--------------------------------------------------------------

   16    -404.5906000429      2.60e-10  Convergence criterion met
 Total energy in the final basis set =     -404.5906000429
   12    -404.5911780907      8.21e-10  Convergence criterion met
 Total energy in the final basis set =     -404.5911780907
   11    -404.5912185114      7.75e-10  Convergence criterion met
 Total energy in the final basis set =     -404.5912185114
   11    -404.5912096639      6.79e-10  Convergence criterion met
 Total energy in the final basis set =     -404.5912096639
   11    -404.5912222382      3.92e-10  Convergence criterion met
 Total energy in the final basis set =     -404.5912222382
   10    -404.5912227380      6.24e-10  Convergence criterion met
 Total energy in the final basis set =     -404.5912227380
   11    -404.5912245794      9.03e-10  Convergence criterion met
 Total energy in the final basis set =     -404.5912245794
   12    -404.5912284716      6.76e-10  Convergence criterion met
 **  OPTIMIZATION CONVERGED  **
 Total job time:  528.01s(wall), 8320.23s(cpu)
        *  Thank you very much for using Q-Chem.  Have a nice day.  *

User input: 2 of 2

                  Welcome to Q-Chem
     A Quantum Leap Into The Future Of Chemistry

 Q-Chem 5.2 (devel), Q-Chem, Inc., Pleasanton, CA (2019)

 Yihan Shao,  Zhengting Gan,  E. Epifanovsky,  A. T. B. Gilbert,  M. Wormit,
 J. Kussmann,  A. W. Lange,  A. Behn,  Jia Deng,  Xintian Feng,  D. Ghosh,
 M. Goldey,  P. R. Horn,  L. D. Jacobson,  I. Kaliman,  T. Kus,  A. Landau,
 Jie Liu,  E. I. Proynov,  R. M. Richard,  R. P. Steele,  E. J. Sundstrom,
 H. L. Woodcock III,  P. M. Zimmerman,  D. Zuev,  B. Alam,  B. Albrecht,
 E. Alguire,  S. A. Baeppler,  D. Barton,  Z. Benda,  Y. A. Bernard,
 E. J. Berquist,  K. B. Bravaya,  H. Burton,  K. Carter-Fenk,  D. Casanova,
 Chun-Min Chang,  Yunqing Chen,  A. Chien,  K. D. Closser,  M. P. Coons,
 S. Coriani,  S. Dasgupta,  A. L. Dempwolff,  M. Diedenhofen,  Hainam Do,
 R. G. Edgar,  Po-Tung Fang,  S. Faraji,  S. Fatehi,  Qingguo Feng,
 J. Fosso-Tande,  J. Gayvert,  Qinghui Ge,  A. Ghysels,  G. Gidofalvi,
 J. Gomes,  J. Gonthier,  A. Gunina,  D. Hait,  M. W. D. Hanson-Heine,
 P. H. P. Harbach,  A. W. Hauser,  M. F. Herbst,  J. E. Herr,
 E. G. Hohenstein,  Z. C. Holden,  Kerwin Hui,  B. C. Huynh,  T.-C. Jagau,
 Hyunjun Ji,  B. Kaduk,  K. Khistyaev,  Jaehoon Kim,  P. Klunzinger,  K. Koh,
 D. Kosenkov,  L. Koulias,  T. Kowalczyk,  C. M. Krauter,  A. Kunitsa,
 Ka Un Lao,  A. Laurent,  K. V. Lawler,  Joonho Lee,  D. Lefrancois,
 S. Lehtola,  D. S. Levine,  Yi-Pei Li,  You-Sheng Lin,  Fenglai Liu,
 Kuan-Yu Liu,  E. Livshits,  M. Loipersberger,  A. Luenser,  P. Manohar,
 E. Mansoor,  S. F. Manzer,  Shan-Ping Mao,  Yuezhi Mao,  N. Mardirossian,
 A. V. Marenich,  T. Markovich,  L. A. Martinez-Martinez,  S. A. Maurer,
 N. J. Mayhall,  S. C. McKenzie,  J.-M. Mewes,  P. Morgante,  A. F. Morrison,
 J. W. Mullinax,  K. Nanda,  T. S. Nguyen-Beck,  R. Olivares-Amaya,
 J. A. Parkhill,  S. K. Paul,  F. Pavosevic,  Zheng Pei,  T. M. Perrine,
 F. Plasser,  P. Pokhilko,  S. Prager,  A. Prociuk,  E. Ramos,  B. Rana,
 D. R. Rehn,  F. Rob,  M. Scheurer,  M. Schneider,  N. Sergueev,
 S. M. Sharada,  S. Sharma,  D. W. Small,  T. Stauch,  C. J. Stein,
 T. Stein,  Yu-Chuan Su,  S. P. Veccham,  Zhen Tao,  A. J. W. Thom,
 A. Tkatchenko,  T. Tsuchimochi,  N. M. Tubman,  L. Vogt,  M. L. Vidal,
 O. Vydrov,  M. A. Watson,  J. Wenzel,  M. de Wergifosse,  T. A. Wesolowski,
 A. White,  J. Witte,  A. Yamada,  Jun Yang,  K. Yao,  S. Yeganeh,
 S. R. Yost,  Zhi-Qiang You,  A. Zech,  Igor Ying Zhang,  Xing Zhang,
 Yan Zhao,  Ying Zhu,  B. R. Brooks,  G. K. L. Chan,  C. J. Cramer,
 M. S. Gordon,  W. J. Hehre,  A. Klamt,  M. W. Schmidt,  C. D. Sherrill,
 D. G. Truhlar,  A. Aspuru-Guzik,  R. Baer,  A. T. Bell,  N. A. Besley,
 Jeng-Da Chai,  A. E. DePrince, III,  R. A. DiStasio Jr.,  A. Dreuw,
 B. D. Dunietz,  T. R. Furlani,  Chao-Ping Hsu,  Yousung Jung,  Jing Kong,
 D. S. Lambrecht,  WanZhen Liang,  C. Ochsenfeld,  V. A. Rassolov,
 L. V. Slipchenko,  J. E. Subotnik,  T. Van Voorhis,  J. M. Herbert,
 A. I. Krylov,  P. M. W. Gill,  M. Head-Gordon

 Contributors to earlier versions of Q-Chem not listed above:
 R. D. Adamson,  B. Austin,  J. Baker,  G. J. O. Beran,  K. Brandhorst,
 S. T. Brown,  E. F. C. Byrd,  A. K. Chakraborty,  C.-L. Cheng,
 Siu Hung Chien,  D. M. Chipman,  D. L. Crittenden,  H. Dachsel,
 R. J. Doerksen,  A. D. Dutoi,  L. Fusti-Molnar,  W. A. Goddard III,
 A. Golubeva-Zadorozhnaya,  S. R. Gwaltney,  G. Hawkins,  A. Heyden,
 S. Hirata,  G. Kedziora,  F. J. Keil,  C. Kelley,  Jihan Kim,  R. A. King,
 R. Z. Khaliullin,  P. P. Korambath,  W. Kurlancheek,  A. M. Lee,  M. S. Lee,
 S. V. Levchenko,  Ching Yeh Lin,  D. Liotard,  R. C. Lochan,  I. Lotan,
 P. E. Maslen,  N. Nair,  D. P. O'Neill,  D. Neuhauser,  E. Neuscamman,
 C. M. Oana,  R. Olson,  B. Peters,  R. Peverati,  P. A. Pieniazek,
 Y. M. Rhee,  J. Ritchie,  M. A. Rohrdanz,  E. Rosta,  N. J. Russ,
 H. F. Schaefer III,  N. E. Schultz,  N. Shenvi,  A. C. Simmonett,  A. Sodt,
 D. Stuck,  K. S. Thanthiriwatte,  V. Vanovschi,  Tao Wang,  A. Warshel,
 C. F. Williams,  Q. Wu,  X. Xu,  W. Zhang

 Please cite Q-Chem as follows:
 Y. Shao et al., Mol. Phys. 113, 184-215 (2015)
 DOI: 10.1080/00268976.2014.952696

 Q-Chem 5.2.2 for Intel X86 EM64T Linux

 Parts of Q-Chem use Armadillo 9.800.1 (Horizon Scraper).
 http://arma.sourceforge.net/

 Q-Chem begins on Sun Mar  7 04:34:46 2021

Host: node023
0

     Scratch files written to /home/ymao90/scratch/CCX_CD_+4020210307030514//
The previous job contains 0 fragments, simply inherited here

Checking the input file for inconsistencies... 	...done.

--------------------------------------------------------------
User input:
--------------------------------------------------------------

$molecule
read
$end

$rem
JOBTYPE  FREQ
METHOD  B3LYP
BASIS  6-31+G(D)
SYMMETRY  FALSE
SYM_IGNORE  TRUE
MEM_TOTAL  8000
MEM_STATIC  2000
MAX_SUB_FILE_NUM  16000
BASIS_LIN_DEP_THRESH  6
THRESH  14
SCF_CONVERGENCE  9
GEN_SCFMAN  TRUE
SCF_GUESS  READ
FD_MAT_VEC_PROD  FALSE
XC_GRID  000099000590
IDERIV   1
NL_GRID  1
MAX_SCF_CYCLES  200
ISOTOPES TRUE
$end

$isotopes
1 0
1
 21 2.0141018
$end

$multipole_field
Z   -0.007779
$end
--------------------------------------------------------------

 Total energy in the final basis set =     -404.5912338976
   10    -404.5912343860      2.77e-10  Convergence criterion met
 Total energy in the final basis set =     -404.5912343860
   10    -404.5912340241      3.76e-10  Convergence criterion met
 Total energy in the final basis set =     -404.5912340241
   10    -404.5912336260      7.65e-10  Convergence criterion met
 Total energy in the final basis set =     -404.5912336260
   10    -404.5912346065      5.95e-10  Convergence criterion met
 Total energy in the final basis set =     -404.5912346065
   10    -404.5912345589      5.90e-10  Convergence criterion met
 Total energy in the final basis set =     -404.5912345589
    9    -404.5912337627      6.51e-10  Convergence criterion met
 Total energy in the final basis set =     -404.5912337627
   10    -404.5912344731      4.75e-10  Convergence criterion met
 Total energy in the final basis set =     -404.5912344731

                    Orbital Energies (a.u.)
 --------------------------------------------------------------

 Alpha MOs
 -- Occupied --
-19.1413 -14.3892 -10.3036 -10.2604 -10.2449 -10.2423 -10.2404 -10.2299
-10.2259  -1.0522  -0.9519  -0.8753  -0.7942  -0.7868  -0.6756  -0.6636
 -0.6190  -0.6142  -0.5573  -0.5219  -0.5008  -0.4932  -0.4879  -0.4521
 -0.4480  -0.4318  -0.4284  -0.4053  -0.3968  -0.3945  -0.3772  -0.3651
 -0.3579  -0.2800  -0.2752

          Ground-State Mulliken Net Atomic Charges

     Atom                 Charge (a.u.)
  ----------------------------------------
      1 C                    -0.204880
      2 C                    -0.529430
      3 C                    -0.293112
      4 C                    -0.424649
      5 C                    -0.378691
      6 C                    -0.431010
      7 H                     0.220531
      8 H                     0.234154
      9 H                     0.209682
     10 H                     0.222192
     11 H                     0.189330
     12 H                     0.186628
     13 H                     0.162487
     14 H                     0.202837
     15 H                     0.190309
     16 H                     0.186422
     17 H                     0.208721
     18 N                    -0.392908
     19 H                     0.412983
     20 C                     0.335005
     21 H                     0.185324
     22 O                    -0.491925
  ----------------------------------------
  Sum of atomic charges =     0.000000

                    Cartesian Multipole Moments
 -----------------------------------------------------------------
    Charge (ESU x 10^10)
                -0.0000
    Dipole Moment (Debye)
         X      -3.6188      Y      -0.9918      Z       2.5122
       Tot       4.5156
    Quadrupole Moments (Debye-Ang)
        XX     -56.1488     XY      -0.2463     YY     -57.4045
        XZ      -0.2978     YZ       0.5180     ZZ     -61.6082

             Standard Nuclear Orientation (Angstroms)
    I     Atom           X                Y                Z
 ----------------------------------------------------------------
    1      C      -2.4180988315     0.9702762568    -2.3271948817
    2      C      -1.5934239392    -0.2628096221    -1.9113909485
    3      C      -2.3122354361    -1.5637937989    -2.3041472486
    4      C      -2.6021081109    -1.5899201683    -3.8154357808
    5      C      -3.3969551210    -0.3530830052    -4.2684070724
    6      C      -2.7064541088     0.9521602774    -3.8378598196
    7      H      -1.6977682151    -2.4249526590    -2.0156248559
    8      H      -0.6315210846    -0.2217955110    -2.4351233188
    9      H      -3.3661097017     0.9807813118    -1.7685825941
   10      H      -1.8741729683     1.8801451528    -2.0485944638
   11      H      -1.6448309063    -1.6236129917    -4.3599230002
   12      H      -3.1445877482    -2.5087273762    -4.0775753677
   13      H      -3.5324246228    -0.3694070456    -5.3610780387
   14      H      -4.4041604752    -0.3905102695    -3.8270742730
   15      H      -1.7547780412     1.0563808053    -4.3832137105
   16      H      -3.3227272967     1.8189411743    -4.1140557846
   17      H      -3.2585448392    -1.6469874892    -1.7478656172
   18      N      -1.2405121069    -0.2405132119    -0.4972064067
   19      H      -1.9517527464    -0.4258141589     0.2011813465
   20      C       0.0086481899     0.1016251356    -0.0649381106
   21      H       0.1047795035     0.0866950713     1.0336815473
   22      O       0.9410739041     0.3909547407    -0.8062061204
 ----------------------------------------------------------------

 Frequency:        15.37                 104.10                 199.18
 Force Cnst:      0.0007                 0.0230                 0.0543
 Red. Mass:       4.7452                 3.5967                 2.3223
 IR Intens:        5.966                  4.241                 33.490
 Frequency:       222.95                 232.39                 334.71
 Force Cnst:      0.0829                 0.0603                 0.1273
 Red. Mass:       2.8292                 1.8940                 1.9290
 IR Intens:       12.232                  1.986                  0.207
 Frequency:       389.01                 408.15                 448.94
 Force Cnst:      0.3374                 0.3801                 0.3053
 Red. Mass:       3.7836                 3.8724                 2.5712
 IR Intens:       22.652                 17.175                  0.570
 Frequency:       461.93                 534.42                 541.63
 Force Cnst:      0.3440                 0.2492                 0.2187
 Red. Mass:       2.7362                 1.4811                 1.2651
 IR Intens:        6.718                 14.337                 29.767
 Frequency:       747.85                 801.64                 824.65
 Force Cnst:      1.3168                 0.5473                 1.0391
 Red. Mass:       3.9962                 1.4455                 2.5934
 IR Intens:        5.952                  0.228                  0.466
 Frequency:       848.69                 903.62                 921.73
 Force Cnst:      0.8358                 0.9490                 0.9548
 Red. Mass:       1.9694                 1.9726                 1.9074
 IR Intens:        1.334                  6.051                  0.542
 Frequency:       935.12                 971.78                1025.73
 Force Cnst:      0.7494                 1.3051                 0.9920
 Red. Mass:       1.4545                 2.3457                 1.6002
 IR Intens:        1.118                  5.379                  0.278
 Frequency:      1039.50                1068.40                1089.49
 Force Cnst:      1.1391                 0.9366                 2.4589
 Red. Mass:       1.7892                 1.3927                 3.5159
 IR Intens:        0.656                  2.198                  3.247
 Frequency:      1094.37                1100.76                1177.04
 Force Cnst:      0.7842                 2.0294                 1.7693
 Red. Mass:       1.1113                 2.8427                 2.1675
 IR Intens:        0.216                  1.485                  1.185
 Frequency:      1207.34                1216.16                1282.87
 Force Cnst:      1.6752                 1.3992                 1.2996
 Red. Mass:       1.9505                 1.6057                 1.3403
 IR Intens:       85.931                 19.074                 15.322
 Frequency:      1294.62                1296.60                1344.72
 Force Cnst:      1.2584                 1.2658                 1.3692
 Red. Mass:       1.2744                 1.2779                 1.2851
 IR Intens:        2.822                  1.429                  5.925
 Frequency:      1356.44                1375.16                1385.03
 Force Cnst:      1.3643                 1.5468                 1.5692
 Red. Mass:       1.2585                 1.3883                 1.3884
 IR Intens:       19.192                  1.285                  0.246
 Frequency:      1388.92                1396.91                1414.74
 Force Cnst:      1.6751                 1.6195                 1.7184
 Red. Mass:       1.4738                 1.4086                 1.4572
 IR Intens:        5.545                  1.142                  2.560
 Frequency:      1423.97                1504.64                1506.38
 Force Cnst:      1.4542                 1.4494                 1.4588
 Red. Mass:       1.2172                 1.0866                 1.0911
 IR Intens:       12.815                  0.709                  2.598
 Frequency:      1510.51                1515.17                1527.66
 Force Cnst:      1.4733                 1.4749                 1.5344
 Red. Mass:       1.0960                 1.0904                 1.1159
 IR Intens:        5.596                 12.874                  6.068
 Frequency:      1542.72                1756.43                2996.39
 Force Cnst:      2.4156                12.7433                 5.6379
 Red. Mass:       1.7227                 7.0108                 1.0658
 IR Intens:      183.247                356.973                 39.768
 Frequency:      3001.03                3007.24                3019.50
 Force Cnst:      5.6629                 5.6868                 5.7333
 Red. Mass:       1.0672                 1.0673                 1.0673
 IR Intens:       29.638                 62.673                  8.534
 Frequency:      3024.50                3034.39                3038.32
 Force Cnst:      5.7606                 5.9101                 5.9469
 Red. Mass:       1.0688                 1.0894                 1.0934
 IR Intens:       20.057                 74.903                 70.556
 Frequency:      3049.73                3056.57                3072.59
 Force Cnst:      6.0049                 6.0417                 6.0216
 Red. Mass:       1.0958                 1.0976                 1.0826
 IR Intens:       76.813                101.728                 12.553
 Frequency:      3086.01                3093.78                3590.99
 Force Cnst:      6.1473                 6.1884                 8.1931
 Red. Mass:       1.0956                 1.0974                 1.0784
 IR Intens:       35.097                 28.358                 26.716
 Frequency:        15.37                 103.38                 180.00
 Force Cnst:      0.0007                 0.0228                 0.0528
 Red. Mass:       4.7444                 3.6169                 2.7659
 IR Intens:        5.991                  4.142                 31.300
 Frequency:       220.32                 232.03                 334.57
 Force Cnst:      0.0916                 0.0590                 0.1278
 Red. Mass:       3.2017                 1.8597                 1.9372
 IR Intens:        7.313                  0.808                  0.182
 Frequency:       383.45                 403.96                 448.08
 Force Cnst:      0.3515                 0.3910                 0.3100
 Red. Mass:       4.0576                 4.0673                 2.6208
 IR Intens:       15.530                 14.877                  0.284
 Frequency:       461.05                 524.33                 533.69
 Force Cnst:      0.3348                 0.1853                 0.2754
 Red. Mass:       2.6732                 1.1442                 1.6409
 IR Intens:        3.554                 56.178                  3.720
 Frequency:       738.84                 801.62                 822.35
 Force Cnst:      1.2743                 0.5475                 1.0161
 Red. Mass:       3.9619                 1.4460                 2.5502
 IR Intens:        5.816                  0.226                  0.386
 Frequency:       847.70                 864.48                 903.63
 Force Cnst:      0.8510                 1.7781                 0.9464
 Red. Mass:       2.0099                 4.0382                 1.9671
 IR Intens:        1.481                  0.155                  6.011
 Frequency:       919.84                 934.95                 945.45
 Force Cnst:      0.9759                 0.7502                 1.2136
 Red. Mass:       1.9577                 1.4567                 2.3044
 IR Intens:        0.857                  1.427                  5.332
 Frequency:      1018.86                1040.08                1067.96
 Force Cnst:      1.3578                 1.1614                 0.9451
 Red. Mass:       2.2200                 1.8222                 1.4064
 IR Intens:        0.582                  0.484                  2.067
 Frequency:      1094.22                1100.36                1136.02
 Force Cnst:      0.7699                 2.0855                 2.6439
 Red. Mass:       1.0914                 2.9234                 3.4772
 IR Intens:        0.301                  1.307                 13.012
 Frequency:      1183.29                1212.61                1215.88
 Force Cnst:      2.0858                 1.6267                 1.5355
 Red. Mass:       2.5284                 1.8777                 1.7628
 IR Intens:        6.044                 47.833                 37.896
 Frequency:      1282.67                1294.47                1296.41
 Force Cnst:      1.3005                 1.2555                 1.2610
 Red. Mass:       1.3417                 1.2717                 1.2735
 IR Intens:       13.210                  2.478                  1.061
 Frequency:      1344.36                1355.65                1375.14
 Force Cnst:      1.3612                 1.3566                 1.5468
 Red. Mass:       1.2783                 1.2529                 1.3883
 IR Intens:        6.058                 16.517                  1.254
 Frequency:      1385.02                1388.92                1396.87
 Force Cnst:      1.5689                 1.6754                 1.6193
 Red. Mass:       1.3881                 1.4740                 1.4085
 IR Intens:        0.241                  5.626                  1.100
 Frequency:      1413.89                1504.64                1506.37
 Force Cnst:      1.7056                 1.4494                 1.4587
 Red. Mass:       1.4481                 1.0866                 1.0911
 IR Intens:        2.132                  0.725                  2.803
 Frequency:      1510.51                1515.13                1527.29
 Force Cnst:      1.4734                 1.4771                 1.5572
 Red. Mass:       1.0960                 1.0921                 1.1331
 IR Intens:        5.591                 13.067                 12.066
 Frequency:      1538.33                1731.91                2248.92
 Force Cnst:      2.2562                14.9024                 7.2762
 Red. Mass:       1.6182                 8.4325                 2.4418
 IR Intens:      151.125                390.617                 55.962
 Frequency:      2996.39                3001.03                3007.24
 Force Cnst:      5.6379                 5.6629                 5.6868
 Red. Mass:       1.0658                 1.0672                 1.0673
 IR Intens:       39.681                 29.642                 61.964
 Frequency:      3019.50                3024.52                3038.29
 Force Cnst:      5.7332                 5.7602                 5.9467
 Red. Mass:       1.0673                 1.0688                 1.0934
 IR Intens:        9.132                 23.135                 81.760
 Frequency:      3049.73                3056.55                3072.51
 Force Cnst:      6.0049                 6.0417                 6.0212
 Red. Mass:       1.0958                 1.0976                 1.0825
 IR Intens:       76.821                101.123                 15.046
 Frequency:      3086.00                3093.77                3590.94
 Force Cnst:      6.1473                 6.1885                 8.1927
 Red. Mass:       1.0956                 1.0974                 1.0784
 IR Intens:       35.311                 28.625                 27.028

 STANDARD THERMODYNAMIC QUANTITIES AT   298.18 K  AND     1.00 ATM

   This Molecule has  0 Imaginary Frequencies
   Zero point vibrational energy:      122.002 kcal/mol

   Atom    1 Element C  Has Mass   12.00000
   Atom    2 Element C  Has Mass   12.00000
   Atom    3 Element C  Has Mass   12.00000
   Atom    4 Element C  Has Mass   12.00000
   Atom    5 Element C  Has Mass   12.00000
   Atom    6 Element C  Has Mass   12.00000
   Atom    7 Element H  Has Mass    1.00783
   Atom    8 Element H  Has Mass    1.00783
   Atom    9 Element H  Has Mass    1.00783
   Atom   10 Element H  Has Mass    1.00783
   Atom   11 Element H  Has Mass    1.00783
   Atom   12 Element H  Has Mass    1.00783
   Atom   13 Element H  Has Mass    1.00783
   Atom   14 Element H  Has Mass    1.00783
   Atom   15 Element H  Has Mass    1.00783
   Atom   16 Element H  Has Mass    1.00783
   Atom   17 Element H  Has Mass    1.00783
   Atom   18 Element N  Has Mass   14.00307
   Atom   19 Element H  Has Mass    1.00783
   Atom   20 Element C  Has Mass   12.00000
   Atom   21 Element H  Has Mass    2.01410
   Atom   22 Element O  Has Mass   15.99491
   Molecular Mass:   128.106042 amu
   Principal axes and moments of inertia in amu*Bohr^2:
                             1           2           3
    Eigenvalues --      554.77072  1961.13391  2165.63931
          X               0.65951     0.01665     0.75151
          Y               0.11984     0.98464    -0.12699
          Z               0.74208    -0.17381    -0.64738
   Rotational Symmetry Number is   1
   The Molecule is an Asymmetric Top
   Translational Enthalpy:        0.889 kcal/mol
   Rotational Enthalpy:           0.889 kcal/mol
   Vibrational Enthalpy:        125.841 kcal/mol
   gas constant (RT):             0.593 kcal/mol
   Translational Entropy:        40.457  cal/mol.K
   Rotational Entropy:           29.245  cal/mol.K
   Vibrational Entropy:          24.982  cal/mol.K

   Total Enthalpy:              128.211 kcal/mol
   Total Entropy:                94.683  cal/mol.K

 Total job time:  5101.69s(wall), 80488.60s(cpu)
        *  Thank you very much for using Q-Chem.  Have a nice day.  *
