 Q-Chem 5.2 (devel), Q-Chem, Inc., Pleasanton, CA (2019)
 Q-Chem 5.2.2 for Intel X86 EM64T Linux

User input:
--------------------------------------------------------------
$molecule
0 1
C     -2.4083508923    0.9984834764   -2.3662547437
C     -1.5543120384   -0.2118403749   -1.9459885704
C     -2.2384976761   -1.5367925874   -2.3261896725
C     -2.5867463449   -1.5816552836   -3.8234193167
C     -3.4377297730   -0.3731774783   -4.2445934317
C     -2.7551397527    0.9499468362   -3.8636626912
H     -1.5849547626   -2.3750094827   -2.0545927530
H     -0.5831065672   -0.1532425547   -2.4485260558
H     -3.3388117820    1.0024650072   -1.7759883684
H     -1.8720534969    1.9234708349   -2.1213670712
H     -1.6555784977   -1.5918293252   -4.4093866053
H     -3.1102152921   -2.5181807775   -4.0551406051
H     -3.6290653549   -0.4033428377   -5.3251377272
H     -4.4201020066   -0.4306546907   -3.7508934023
H     -1.8320207629    1.0648782183   -4.4511997179
H     -3.3973970401    1.8010825553   -4.1242295555
H     -3.1618885583   -1.6469527918   -1.7346449512
N     -1.2474445251   -0.1731895513   -0.5151412109
H     -2.0131265263   -0.2687147311    0.1418849346
C      0.0000000000    0.0000000000    0.0000000000
H      0.0000000000    0.0000000000    1.1070732462
O      1.0278769477    0.1402881570   -0.6492362509
$end

$rem
JOBTYPE  OPT
METHOD  B3LYP
BASIS  6-31+G(D)
SYMMETRY  FALSE
SYM_IGNORE  TRUE
MEM_TOTAL  8000
MEM_STATIC  2000
MAX_SUB_FILE_NUM  16000
BASIS_LIN_DEP_THRESH  6
THRESH  14
SCF_CONVERGENCE  9
GEN_SCFMAN  TRUE
SCF_GUESS  SAD
FD_MAT_VEC_PROD  FALSE
XC_GRID  000099000590
NL_GRID  1
MAX_SCF_CYCLES  200
GEOM_OPT_TOL_GRADIENT  100
GEOM_OPT_TOL_DISPLACEMENT  100
GEOM_OPT_TOL_ENERGY  10
$end

$multipole_field
Z   -0.003890
$end

--------------------------------------------------------------

   16    -404.5880848131      1.93e-10  Convergence criterion met
 Total energy in the final basis set =     -404.5880848131
   12    -404.5882363672      4.23e-10  Convergence criterion met
 Total energy in the final basis set =     -404.5882363672
   11    -404.5882453245      4.27e-10  Convergence criterion met
 Total energy in the final basis set =     -404.5882453245
   11    -404.5882406187      4.85e-10  Convergence criterion met
 Total energy in the final basis set =     -404.5882406187
   11    -404.5882473567      3.42e-10  Convergence criterion met
 Total energy in the final basis set =     -404.5882473567
   10    -404.5882476740      2.75e-10  Convergence criterion met
 Total energy in the final basis set =     -404.5882476740
   12    -404.5882522957      7.94e-10  Convergence criterion met
 Total energy in the final basis set =     -404.5882522957
   13    -404.5882566268      4.32e-10  Convergence criterion met
 **  OPTIMIZATION CONVERGED  **
 Total job time:  492.40s(wall), 7776.41s(cpu)
        *  Thank you very much for using Q-Chem.  Have a nice day.  *

User input: 2 of 2

                  Welcome to Q-Chem
     A Quantum Leap Into The Future Of Chemistry

 Q-Chem 5.2 (devel), Q-Chem, Inc., Pleasanton, CA (2019)

 Yihan Shao,  Zhengting Gan,  E. Epifanovsky,  A. T. B. Gilbert,  M. Wormit,
 J. Kussmann,  A. W. Lange,  A. Behn,  Jia Deng,  Xintian Feng,  D. Ghosh,
 M. Goldey,  P. R. Horn,  L. D. Jacobson,  I. Kaliman,  T. Kus,  A. Landau,
 Jie Liu,  E. I. Proynov,  R. M. Richard,  R. P. Steele,  E. J. Sundstrom,
 H. L. Woodcock III,  P. M. Zimmerman,  D. Zuev,  B. Alam,  B. Albrecht,
 E. Alguire,  S. A. Baeppler,  D. Barton,  Z. Benda,  Y. A. Bernard,
 E. J. Berquist,  K. B. Bravaya,  H. Burton,  K. Carter-Fenk,  D. Casanova,
 Chun-Min Chang,  Yunqing Chen,  A. Chien,  K. D. Closser,  M. P. Coons,
 S. Coriani,  S. Dasgupta,  A. L. Dempwolff,  M. Diedenhofen,  Hainam Do,
 R. G. Edgar,  Po-Tung Fang,  S. Faraji,  S. Fatehi,  Qingguo Feng,
 J. Fosso-Tande,  J. Gayvert,  Qinghui Ge,  A. Ghysels,  G. Gidofalvi,
 J. Gomes,  J. Gonthier,  A. Gunina,  D. Hait,  M. W. D. Hanson-Heine,
 P. H. P. Harbach,  A. W. Hauser,  M. F. Herbst,  J. E. Herr,
 E. G. Hohenstein,  Z. C. Holden,  Kerwin Hui,  B. C. Huynh,  T.-C. Jagau,
 Hyunjun Ji,  B. Kaduk,  K. Khistyaev,  Jaehoon Kim,  P. Klunzinger,  K. Koh,
 D. Kosenkov,  L. Koulias,  T. Kowalczyk,  C. M. Krauter,  A. Kunitsa,
 Ka Un Lao,  A. Laurent,  K. V. Lawler,  Joonho Lee,  D. Lefrancois,
 S. Lehtola,  D. S. Levine,  Yi-Pei Li,  You-Sheng Lin,  Fenglai Liu,
 Kuan-Yu Liu,  E. Livshits,  M. Loipersberger,  A. Luenser,  P. Manohar,
 E. Mansoor,  S. F. Manzer,  Shan-Ping Mao,  Yuezhi Mao,  N. Mardirossian,
 A. V. Marenich,  T. Markovich,  L. A. Martinez-Martinez,  S. A. Maurer,
 N. J. Mayhall,  S. C. McKenzie,  J.-M. Mewes,  P. Morgante,  A. F. Morrison,
 J. W. Mullinax,  K. Nanda,  T. S. Nguyen-Beck,  R. Olivares-Amaya,
 J. A. Parkhill,  S. K. Paul,  F. Pavosevic,  Zheng Pei,  T. M. Perrine,
 F. Plasser,  P. Pokhilko,  S. Prager,  A. Prociuk,  E. Ramos,  B. Rana,
 D. R. Rehn,  F. Rob,  M. Scheurer,  M. Schneider,  N. Sergueev,
 S. M. Sharada,  S. Sharma,  D. W. Small,  T. Stauch,  C. J. Stein,
 T. Stein,  Yu-Chuan Su,  S. P. Veccham,  Zhen Tao,  A. J. W. Thom,
 A. Tkatchenko,  T. Tsuchimochi,  N. M. Tubman,  L. Vogt,  M. L. Vidal,
 O. Vydrov,  M. A. Watson,  J. Wenzel,  M. de Wergifosse,  T. A. Wesolowski,
 A. White,  J. Witte,  A. Yamada,  Jun Yang,  K. Yao,  S. Yeganeh,
 S. R. Yost,  Zhi-Qiang You,  A. Zech,  Igor Ying Zhang,  Xing Zhang,
 Yan Zhao,  Ying Zhu,  B. R. Brooks,  G. K. L. Chan,  C. J. Cramer,
 M. S. Gordon,  W. J. Hehre,  A. Klamt,  M. W. Schmidt,  C. D. Sherrill,
 D. G. Truhlar,  A. Aspuru-Guzik,  R. Baer,  A. T. Bell,  N. A. Besley,
 Jeng-Da Chai,  A. E. DePrince, III,  R. A. DiStasio Jr.,  A. Dreuw,
 B. D. Dunietz,  T. R. Furlani,  Chao-Ping Hsu,  Yousung Jung,  Jing Kong,
 D. S. Lambrecht,  WanZhen Liang,  C. Ochsenfeld,  V. A. Rassolov,
 L. V. Slipchenko,  J. E. Subotnik,  T. Van Voorhis,  J. M. Herbert,
 A. I. Krylov,  P. M. W. Gill,  M. Head-Gordon

 Contributors to earlier versions of Q-Chem not listed above:
 R. D. Adamson,  B. Austin,  J. Baker,  G. J. O. Beran,  K. Brandhorst,
 S. T. Brown,  E. F. C. Byrd,  A. K. Chakraborty,  C.-L. Cheng,
 Siu Hung Chien,  D. M. Chipman,  D. L. Crittenden,  H. Dachsel,
 R. J. Doerksen,  A. D. Dutoi,  L. Fusti-Molnar,  W. A. Goddard III,
 A. Golubeva-Zadorozhnaya,  S. R. Gwaltney,  G. Hawkins,  A. Heyden,
 S. Hirata,  G. Kedziora,  F. J. Keil,  C. Kelley,  Jihan Kim,  R. A. King,
 R. Z. Khaliullin,  P. P. Korambath,  W. Kurlancheek,  A. M. Lee,  M. S. Lee,
 S. V. Levchenko,  Ching Yeh Lin,  D. Liotard,  R. C. Lochan,  I. Lotan,
 P. E. Maslen,  N. Nair,  D. P. O'Neill,  D. Neuhauser,  E. Neuscamman,
 C. M. Oana,  R. Olson,  B. Peters,  R. Peverati,  P. A. Pieniazek,
 Y. M. Rhee,  J. Ritchie,  M. A. Rohrdanz,  E. Rosta,  N. J. Russ,
 H. F. Schaefer III,  N. E. Schultz,  N. Shenvi,  A. C. Simmonett,  A. Sodt,
 D. Stuck,  K. S. Thanthiriwatte,  V. Vanovschi,  Tao Wang,  A. Warshel,
 C. F. Williams,  Q. Wu,  X. Xu,  W. Zhang

 Please cite Q-Chem as follows:
 Y. Shao et al., Mol. Phys. 113, 184-215 (2015)
 DOI: 10.1080/00268976.2014.952696

 Q-Chem 5.2.2 for Intel X86 EM64T Linux

 Parts of Q-Chem use Armadillo 9.800.1 (Horizon Scraper).
 http://arma.sourceforge.net/

 Q-Chem begins on Sun Mar  7 03:13:28 2021

Host: node025
0

     Scratch files written to /home/ymao90/scratch/CCX_CD_+2020210307030514//
The previous job contains 0 fragments, simply inherited here

Checking the input file for inconsistencies... 	...done.

--------------------------------------------------------------
User input:
--------------------------------------------------------------

$molecule
read
$end

$rem
JOBTYPE  FREQ
METHOD  B3LYP
BASIS  6-31+G(D)
SYMMETRY  FALSE
SYM_IGNORE  TRUE
MEM_TOTAL  8000
MEM_STATIC  2000
MAX_SUB_FILE_NUM  16000
BASIS_LIN_DEP_THRESH  6
THRESH  14
SCF_CONVERGENCE  9
GEN_SCFMAN  TRUE
SCF_GUESS  READ
FD_MAT_VEC_PROD  FALSE
XC_GRID  000099000590
IDERIV   1
NL_GRID  1
MAX_SCF_CYCLES  200
ISOTOPES TRUE
$end

$isotopes
1 0
1
 21 2.0141018
$end

$multipole_field
Z   -0.003890
$end
--------------------------------------------------------------

 Total energy in the final basis set =     -404.5882648797
   10    -404.5882651134      2.91e-10  Convergence criterion met
 Total energy in the final basis set =     -404.5882651134
   10    -404.5882647901      3.86e-10  Convergence criterion met
 Total energy in the final basis set =     -404.5882647901
   10    -404.5882645049      7.86e-10  Convergence criterion met
 Total energy in the final basis set =     -404.5882645049
   10    -404.5882653771      6.00e-10  Convergence criterion met
 Total energy in the final basis set =     -404.5882653771
   10    -404.5882654319      6.40e-10  Convergence criterion met
 Total energy in the final basis set =     -404.5882654319
    9    -404.5882648921      5.45e-10  Convergence criterion met
 Total energy in the final basis set =     -404.5882648921
   10    -404.5882651331      4.56e-10  Convergence criterion met
 Total energy in the final basis set =     -404.5882651331

                    Orbital Energies (a.u.)
 --------------------------------------------------------------

 Alpha MOs
 -- Occupied --
-19.1338 -14.3815 -10.2972 -10.2465 -10.2178 -10.2175 -10.2155 -10.2133
-10.2086  -1.0447  -0.9431  -0.8547  -0.7734  -0.7687  -0.6592  -0.6434
 -0.6084  -0.5940  -0.5443  -0.5048  -0.4837  -0.4728  -0.4683  -0.4361
 -0.4303  -0.4179  -0.4105  -0.3918  -0.3769  -0.3747  -0.3561  -0.3449
 -0.3386  -0.2713  -0.2672

          Ground-State Mulliken Net Atomic Charges

     Atom                 Charge (a.u.)
  ----------------------------------------
      1 C                    -0.204732
      2 C                    -0.521153
      3 C                    -0.297782
      4 C                    -0.422811
      5 C                    -0.381566
      6 C                    -0.432037
      7 H                     0.216088
      8 H                     0.236662
      9 H                     0.202962
     10 H                     0.218470
     11 H                     0.196500
     12 H                     0.192566
     13 H                     0.179670
     14 H                     0.199587
     15 H                     0.197338
     16 H                     0.192652
     17 H                     0.201176
     18 N                    -0.388113
     19 H                     0.403192
     20 C                     0.332505
     21 H                     0.164633
     22 O                    -0.485808
  ----------------------------------------
  Sum of atomic charges =     0.000000

                    Cartesian Multipole Moments
 -----------------------------------------------------------------
    Charge (ESU x 10^10)
                 0.0000
    Dipole Moment (Debye)
         X      -3.7856      Y      -1.1432      Z       1.3715
       Tot       4.1855
    Quadrupole Moments (Debye-Ang)
        XX     -55.6190     XY      -0.2906     YY     -57.3591
        XZ       1.6968     YZ       0.7864     ZZ     -56.6935

             Standard Nuclear Orientation (Angstroms)
    I     Atom           X                Y                Z
 ----------------------------------------------------------------
    1      C      -2.3871186062     0.9694883713    -2.3405045149
    2      C      -1.5684335713    -0.2691406870    -1.9298638995
    3      C      -2.2936458986    -1.5673096145    -2.3195772989
    4      C      -2.6163873300    -1.5899108986    -3.8236064684
    5      C      -3.4176235555    -0.3503770661    -4.2549772094
    6      C      -2.7064936531     0.9494553682    -3.8444945603
    7      H      -1.6748020262    -2.4303473708    -2.0449098112
    8      H      -0.6032882432    -0.2322422370    -2.4472821671
    9      H      -3.3248612581     0.9891031123    -1.7640708415
   10      H      -1.8298581673     1.8753935726    -2.0745782430
   11      H      -1.6733531676    -1.6267785008    -4.3906368673
   12      H      -3.1669186142    -2.5067139513    -4.0731717927
   13      H      -3.5827611876    -0.3665371400    -5.3416686313
   14      H      -4.4129313925    -0.3818612138    -3.7863454468
   15      H      -1.7675744709     1.0447333834    -4.4116003152
   16      H      -3.3204333678     1.8208099711    -4.1086755755
   17      H      -3.2298236269    -1.6500270091    -1.7449360198
   18      N      -1.2343652273    -0.2555345582    -0.5075685591
   19      H      -1.9570875813    -0.4714211251     0.1694226088
   20      C      -0.0130400387     0.1210800332    -0.0340783144
   21      H       0.0460553377     0.0885734708     1.0686400079
   22      O       0.9360809444     0.4555967077    -0.7321506005
 ----------------------------------------------------------------

 Frequency:        15.67                 103.26                 187.01
 Force Cnst:      0.0007                 0.0227                 0.0462
 Red. Mass:       4.7501                 3.6097                 2.2405
 IR Intens:        6.420                  4.655                 34.352
 Frequency:       219.15                 230.63                 334.45
 Force Cnst:      0.0863                 0.0580                 0.1264
 Red. Mass:       3.0507                 1.8504                 1.9186
 IR Intens:       11.944                  0.944                  0.190
 Frequency:       385.53                 407.68                 446.84
 Force Cnst:      0.3276                 0.3812                 0.2893
 Red. Mass:       3.7412                 3.8927                 2.4592
 IR Intens:       20.689                 15.956                  0.318
 Frequency:       461.82                 532.23                 538.94
 Force Cnst:      0.3604                 0.2186                 0.2454
 Red. Mass:       2.8683                 1.3096                 1.4339
 IR Intens:        7.604                 25.775                 14.619
 Frequency:       748.35                 801.35                 824.67
 Force Cnst:      1.3271                 0.5475                 1.0186
 Red. Mass:       4.0221                 1.4470                 2.5422
 IR Intens:        4.706                  0.199                  0.642
 Frequency:       850.29                 904.50                 920.77
 Force Cnst:      0.8539                 0.9274                 0.9477
 Red. Mass:       2.0046                 1.9240                 1.8972
 IR Intens:        1.149                  6.592                  0.432
 Frequency:       936.82                 970.78                1020.49
 Force Cnst:      0.7670                 1.3096                 0.9848
 Red. Mass:       1.4834                 2.3585                 1.6050
 IR Intens:        0.796                  4.774                  0.179
 Frequency:      1040.54                1069.26                1083.02
 Force Cnst:      1.1423                 0.9445                 2.4233
 Red. Mass:       1.7906                 1.4022                 3.5066
 IR Intens:        0.930                  1.586                  4.469
 Frequency:      1096.09                1103.15                1177.02
 Force Cnst:      0.8189                 1.8642                 1.7767
 Red. Mass:       1.1568                 2.5999                 2.1766
 IR Intens:        0.156                  1.469                  0.508
 Frequency:      1210.01                1219.17                1283.03
 Force Cnst:      1.5773                 1.4153                 1.3042
 Red. Mass:       1.8285                 1.6161                 1.3447
 IR Intens:       71.307                 24.412                 13.836
 Frequency:      1295.41                1298.36                1344.20
 Force Cnst:      1.2568                 1.2745                 1.3599
 Red. Mass:       1.2711                 1.2832                 1.2774
 IR Intens:        3.274                  2.222                  7.144
 Frequency:      1355.03                1377.72                1386.87
 Force Cnst:      1.3667                 1.5516                 1.5555
 Red. Mass:       1.2633                 1.3874                 1.3726
 IR Intens:       12.790                  0.986                  0.398
 Frequency:      1391.66                1395.05                1413.31
 Force Cnst:      1.6948                 1.6366                 1.7229
 Red. Mass:       1.4852                 1.4273                 1.4640
 IR Intens:        6.172                  1.331                  1.606
 Frequency:      1426.01                1505.00                1507.89
 Force Cnst:      1.4561                 1.4493                 1.4628
 Red. Mass:       1.2154                 1.0860                 1.0920
 IR Intens:       10.685                  0.471                  3.165
 Frequency:      1511.11                1515.77                1528.02
 Force Cnst:      1.4747                 1.4723                 1.5333
 Red. Mass:       1.0961                 1.0876                 1.1146
 IR Intens:        5.359                 12.822                  5.417
 Frequency:      1543.82                1764.32                3006.45
 Force Cnst:      2.4588                13.1709                 5.7886
 Red. Mass:       1.7509                 7.1814                 1.0870
 IR Intens:      186.349                376.503                 81.490
 Frequency:      3007.64                3011.45                3013.27
 Force Cnst:      5.7085                 5.7183                 5.6939
 Red. Mass:       1.0711                 1.0702                 1.0644
 IR Intens:       29.586                  8.648                 33.016
 Frequency:      3014.77                3019.30                3050.52
 Force Cnst:      5.6872                 5.7279                 6.0018
 Red. Mass:       1.0620                 1.0664                 1.0947
 IR Intens:       28.128                 41.604                 92.701
 Frequency:      3058.67                3063.69                3073.20
 Force Cnst:      6.0491                 6.0839                 6.0483
 Red. Mass:       1.0974                 1.1001                 1.0869
 IR Intens:       64.747                 82.800                 11.646
 Frequency:      3082.23                3091.99                3591.81
 Force Cnst:      6.1148                 6.1665                 8.1941
 Red. Mass:       1.0925                 1.0947                 1.0780
 IR Intens:       34.701                 32.622                 19.517
 Frequency:        15.64                 102.54                 168.94
 Force Cnst:      0.0007                 0.0225                 0.0458
 Red. Mass:       4.7530                 3.6296                 2.7261
 IR Intens:        6.435                  4.541                 30.261
 Frequency:       216.73                 230.48                 334.29
 Force Cnst:      0.0924                 0.0575                 0.1270
 Red. Mass:       3.3402                 1.8361                 1.9287
 IR Intens:        8.001                  0.552                  0.170
 Frequency:       380.33                 403.63                 446.21
 Force Cnst:      0.3380                 0.3926                 0.2920
 Red. Mass:       3.9665                 4.0903                 2.4892
 IR Intens:       14.040                 13.998                  0.471
 Frequency:       460.93                 518.40                 533.45
 Force Cnst:      0.3536                 0.1811                 0.2771
 Red. Mass:       2.8252                 1.1440                 1.6528
 IR Intens:        4.242                 53.734                  2.033
 Frequency:       739.25                 801.33                 822.35
 Force Cnst:      1.2831                 0.5477                 0.9976
 Red. Mass:       3.9850                 1.4478                 2.5038
 IR Intens:        4.569                  0.199                  0.513
 Frequency:       849.22                 860.90                 904.53
 Force Cnst:      0.8697                 1.7672                 0.9243
 Red. Mass:       2.0469                 4.0471                 1.9175
 IR Intens:        1.280                  0.224                  6.523
 Frequency:       918.67                 936.43                 944.47
 Force Cnst:      0.9817                 0.7733                 1.1815
 Red. Mass:       1.9742                 1.4967                 2.2480
 IR Intens:        0.786                  1.320                  3.929
 Frequency:      1019.92                1041.01                1068.97
 Force Cnst:      1.3747                 1.1613                 0.9436
 Red. Mass:       2.2431                 1.8188                 1.4016
 IR Intens:        0.974                  0.719                  1.514
 Frequency:      1096.01                1102.82                1129.94
 Force Cnst:      0.8097                 1.9089                 2.5556
 Red. Mass:       1.1441                 2.6640                 3.3973
 IR Intens:        0.167                  1.311                 14.201
 Frequency:      1183.17                1215.61                1219.70
 Force Cnst:      2.0678                 1.4462                 1.6938
 Red. Mass:       2.5070                 1.6610                 1.9325
 IR Intens:        6.402                 21.871                 54.271
 Frequency:      1282.69                1295.32                1298.08
 Force Cnst:      1.3032                 1.2551                 1.2687
 Red. Mass:       1.3443                 1.2696                 1.2779
 IR Intens:       11.734                  3.073                  1.599
 Frequency:      1343.67                1354.35                1377.70
 Force Cnst:      1.3491                 1.3615                 1.5515
 Red. Mass:       1.2682                 1.2598                 1.3874
 IR Intens:        7.018                 10.408                  0.961
 Frequency:      1386.86                1391.66                1395.02
 Force Cnst:      1.5548                 1.6952                 1.6363
 Red. Mass:       1.3720                 1.4856                 1.4271
 IR Intens:        0.391                  6.271                  1.280
 Frequency:      1412.56                1505.00                1507.88
 Force Cnst:      1.7118                 1.4493                 1.4627
 Red. Mass:       1.4561                 1.0860                 1.0919
 IR Intens:        1.294                  0.475                  3.403
 Frequency:      1511.10                1515.74                1527.64
 Force Cnst:      1.4747                 1.4742                 1.5563
 Red. Mass:       1.0961                 1.0890                 1.1319
 IR Intens:        5.352                 12.962                 11.255
 Frequency:      1538.95                1741.16                2226.38
 Force Cnst:      2.2885                15.4020                 7.1106
 Red. Mass:       1.6400                 8.6229                 2.4348
 IR Intens:      151.867                409.251                 76.024
 Frequency:      3007.59                3011.44                3013.27
 Force Cnst:      5.7053                 5.7182                 5.6940
 Red. Mass:       1.0705                 1.0702                 1.0644
 IR Intens:       21.494                 10.205                 32.655
 Frequency:      3014.77                3019.28                3050.52
 Force Cnst:      5.6871                 5.7277                 6.0018
 Red. Mass:       1.0620                 1.0664                 1.0947
 IR Intens:       27.788                 38.368                 94.094
 Frequency:      3058.67                3063.68                3073.19
 Force Cnst:      6.0491                 6.0839                 6.0481
 Red. Mass:       1.0974                 1.1001                 1.0869
 IR Intens:       64.752                 82.482                 12.270
 Frequency:      3082.21                3091.97                3591.75
 Force Cnst:      6.1148                 6.1666                 8.1936
 Red. Mass:       1.0925                 1.0948                 1.0780
 IR Intens:       35.115                 33.193                 19.784

 STANDARD THERMODYNAMIC QUANTITIES AT   298.18 K  AND     1.00 ATM

   This Molecule has  0 Imaginary Frequencies
   Zero point vibrational energy:      122.022 kcal/mol

   Atom    1 Element C  Has Mass   12.00000
   Atom    2 Element C  Has Mass   12.00000
   Atom    3 Element C  Has Mass   12.00000
   Atom    4 Element C  Has Mass   12.00000
   Atom    5 Element C  Has Mass   12.00000
   Atom    6 Element C  Has Mass   12.00000
   Atom    7 Element H  Has Mass    1.00783
   Atom    8 Element H  Has Mass    1.00783
   Atom    9 Element H  Has Mass    1.00783
   Atom   10 Element H  Has Mass    1.00783
   Atom   11 Element H  Has Mass    1.00783
   Atom   12 Element H  Has Mass    1.00783
   Atom   13 Element H  Has Mass    1.00783
   Atom   14 Element H  Has Mass    1.00783
   Atom   15 Element H  Has Mass    1.00783
   Atom   16 Element H  Has Mass    1.00783
   Atom   17 Element H  Has Mass    1.00783
   Atom   18 Element N  Has Mass   14.00307
   Atom   19 Element H  Has Mass    1.00783
   Atom   20 Element C  Has Mass   12.00000
   Atom   21 Element H  Has Mass    2.01410
   Atom   22 Element O  Has Mass   15.99491
   Molecular Mass:   128.106042 amu
   Principal axes and moments of inertia in amu*Bohr^2:
                             1           2           3
    Eigenvalues --      547.76737  1975.87972  2192.94319
          X               0.65530     0.02070     0.75508
          Y               0.12809     0.98210    -0.13809
          Z               0.74443    -0.18720    -0.64092
   Rotational Symmetry Number is   1
   The Molecule is an Asymmetric Top
   Translational Enthalpy:        0.889 kcal/mol
   Rotational Enthalpy:           0.889 kcal/mol
   Vibrational Enthalpy:        125.885 kcal/mol
   gas constant (RT):             0.593 kcal/mol
   Translational Entropy:        40.457  cal/mol.K
   Rotational Entropy:           29.252  cal/mol.K
   Vibrational Entropy:          25.157  cal/mol.K

   Total Enthalpy:              128.255 kcal/mol
   Total Entropy:                94.866  cal/mol.K

 Total job time:  5115.85s(wall), 80986.38s(cpu)
        *  Thank you very much for using Q-Chem.  Have a nice day.  *
