 Q-Chem 5.2 (devel), Q-Chem, Inc., Pleasanton, CA (2019)
 Q-Chem 5.2.2 for Intel X86 EM64T Linux

User input:
--------------------------------------------------------------
$molecule
0 1
C     -2.4083508923    0.9984834764   -2.3662547437
C     -1.5543120384   -0.2118403749   -1.9459885704
C     -2.2384976761   -1.5367925874   -2.3261896725
C     -2.5867463449   -1.5816552836   -3.8234193167
C     -3.4377297730   -0.3731774783   -4.2445934317
C     -2.7551397527    0.9499468362   -3.8636626912
H     -1.5849547626   -2.3750094827   -2.0545927530
H     -0.5831065672   -0.1532425547   -2.4485260558
H     -3.3388117820    1.0024650072   -1.7759883684
H     -1.8720534969    1.9234708349   -2.1213670712
H     -1.6555784977   -1.5918293252   -4.4093866053
H     -3.1102152921   -2.5181807775   -4.0551406051
H     -3.6290653549   -0.4033428377   -5.3251377272
H     -4.4201020066   -0.4306546907   -3.7508934023
H     -1.8320207629    1.0648782183   -4.4511997179
H     -3.3973970401    1.8010825553   -4.1242295555
H     -3.1618885583   -1.6469527918   -1.7346449512
N     -1.2474445251   -0.1731895513   -0.5151412109
H     -2.0131265263   -0.2687147311    0.1418849346
C      0.0000000000    0.0000000000    0.0000000000
H      0.0000000000    0.0000000000    1.1070732462
O      1.0278769477    0.1402881570   -0.6492362509
$end

$rem
JOBTYPE  OPT
METHOD  B3LYP
BASIS  6-31+G(D)
SYMMETRY  FALSE
SYM_IGNORE  TRUE
MEM_TOTAL  8000
MEM_STATIC  2000
MAX_SUB_FILE_NUM  16000
BASIS_LIN_DEP_THRESH  6
THRESH  14
SCF_CONVERGENCE  9
GEN_SCFMAN  TRUE
SCF_GUESS  SAD
FD_MAT_VEC_PROD  FALSE
XC_GRID  000099000590
NL_GRID  1
MAX_SCF_CYCLES  200
GEOM_OPT_TOL_GRADIENT  100
GEOM_OPT_TOL_DISPLACEMENT  100
GEOM_OPT_TOL_ENERGY  10
$end

$multipole_field
Z   0.003890
$end

--------------------------------------------------------------

   16    -404.5874481540      2.56e-10  Convergence criterion met
 Total energy in the final basis set =     -404.5874481540
   12    -404.5876094829      6.57e-10  Convergence criterion met
 Total energy in the final basis set =     -404.5876094829
   11    -404.5876224861      6.08e-10  Convergence criterion met
 Total energy in the final basis set =     -404.5876224861
   11    -404.5876192248      4.39e-10  Convergence criterion met
 Total energy in the final basis set =     -404.5876192248
   10    -404.5876233307      5.96e-10  Convergence criterion met
 Total energy in the final basis set =     -404.5876233307
    9    -404.5876233574      4.83e-10  Convergence criterion met
 Total energy in the final basis set =     -404.5876233574
 Final energy is   -404.587623357395
 **  OPTIMIZATION CONVERGED  **
 Total job time:  257.18s(wall), 4042.20s(cpu)
        *  Thank you very much for using Q-Chem.  Have a nice day.  *

User input: 2 of 2

                  Welcome to Q-Chem
     A Quantum Leap Into The Future Of Chemistry

 Q-Chem 5.2 (devel), Q-Chem, Inc., Pleasanton, CA (2019)

 Yihan Shao,  Zhengting Gan,  E. Epifanovsky,  A. T. B. Gilbert,  M. Wormit,
 J. Kussmann,  A. W. Lange,  A. Behn,  Jia Deng,  Xintian Feng,  D. Ghosh,
 M. Goldey,  P. R. Horn,  L. D. Jacobson,  I. Kaliman,  T. Kus,  A. Landau,
 Jie Liu,  E. I. Proynov,  R. M. Richard,  R. P. Steele,  E. J. Sundstrom,
 H. L. Woodcock III,  P. M. Zimmerman,  D. Zuev,  B. Alam,  B. Albrecht,
 E. Alguire,  S. A. Baeppler,  D. Barton,  Z. Benda,  Y. A. Bernard,
 E. J. Berquist,  K. B. Bravaya,  H. Burton,  K. Carter-Fenk,  D. Casanova,
 Chun-Min Chang,  Yunqing Chen,  A. Chien,  K. D. Closser,  M. P. Coons,
 S. Coriani,  S. Dasgupta,  A. L. Dempwolff,  M. Diedenhofen,  Hainam Do,
 R. G. Edgar,  Po-Tung Fang,  S. Faraji,  S. Fatehi,  Qingguo Feng,
 J. Fosso-Tande,  J. Gayvert,  Qinghui Ge,  A. Ghysels,  G. Gidofalvi,
 J. Gomes,  J. Gonthier,  A. Gunina,  D. Hait,  M. W. D. Hanson-Heine,
 P. H. P. Harbach,  A. W. Hauser,  M. F. Herbst,  J. E. Herr,
 E. G. Hohenstein,  Z. C. Holden,  Kerwin Hui,  B. C. Huynh,  T.-C. Jagau,
 Hyunjun Ji,  B. Kaduk,  K. Khistyaev,  Jaehoon Kim,  P. Klunzinger,  K. Koh,
 D. Kosenkov,  L. Koulias,  T. Kowalczyk,  C. M. Krauter,  A. Kunitsa,
 Ka Un Lao,  A. Laurent,  K. V. Lawler,  Joonho Lee,  D. Lefrancois,
 S. Lehtola,  D. S. Levine,  Yi-Pei Li,  You-Sheng Lin,  Fenglai Liu,
 Kuan-Yu Liu,  E. Livshits,  M. Loipersberger,  A. Luenser,  P. Manohar,
 E. Mansoor,  S. F. Manzer,  Shan-Ping Mao,  Yuezhi Mao,  N. Mardirossian,
 A. V. Marenich,  T. Markovich,  L. A. Martinez-Martinez,  S. A. Maurer,
 N. J. Mayhall,  S. C. McKenzie,  J.-M. Mewes,  P. Morgante,  A. F. Morrison,
 J. W. Mullinax,  K. Nanda,  T. S. Nguyen-Beck,  R. Olivares-Amaya,
 J. A. Parkhill,  S. K. Paul,  F. Pavosevic,  Zheng Pei,  T. M. Perrine,
 F. Plasser,  P. Pokhilko,  S. Prager,  A. Prociuk,  E. Ramos,  B. Rana,
 D. R. Rehn,  F. Rob,  M. Scheurer,  M. Schneider,  N. Sergueev,
 S. M. Sharada,  S. Sharma,  D. W. Small,  T. Stauch,  C. J. Stein,
 T. Stein,  Yu-Chuan Su,  S. P. Veccham,  Zhen Tao,  A. J. W. Thom,
 A. Tkatchenko,  T. Tsuchimochi,  N. M. Tubman,  L. Vogt,  M. L. Vidal,
 O. Vydrov,  M. A. Watson,  J. Wenzel,  M. de Wergifosse,  T. A. Wesolowski,
 A. White,  J. Witte,  A. Yamada,  Jun Yang,  K. Yao,  S. Yeganeh,
 S. R. Yost,  Zhi-Qiang You,  A. Zech,  Igor Ying Zhang,  Xing Zhang,
 Yan Zhao,  Ying Zhu,  B. R. Brooks,  G. K. L. Chan,  C. J. Cramer,
 M. S. Gordon,  W. J. Hehre,  A. Klamt,  M. W. Schmidt,  C. D. Sherrill,
 D. G. Truhlar,  A. Aspuru-Guzik,  R. Baer,  A. T. Bell,  N. A. Besley,
 Jeng-Da Chai,  A. E. DePrince, III,  R. A. DiStasio Jr.,  A. Dreuw,
 B. D. Dunietz,  T. R. Furlani,  Chao-Ping Hsu,  Yousung Jung,  Jing Kong,
 D. S. Lambrecht,  WanZhen Liang,  C. Ochsenfeld,  V. A. Rassolov,
 L. V. Slipchenko,  J. E. Subotnik,  T. Van Voorhis,  J. M. Herbert,
 A. I. Krylov,  P. M. W. Gill,  M. Head-Gordon

 Contributors to earlier versions of Q-Chem not listed above:
 R. D. Adamson,  B. Austin,  J. Baker,  G. J. O. Beran,  K. Brandhorst,
 S. T. Brown,  E. F. C. Byrd,  A. K. Chakraborty,  C.-L. Cheng,
 Siu Hung Chien,  D. M. Chipman,  D. L. Crittenden,  H. Dachsel,
 R. J. Doerksen,  A. D. Dutoi,  L. Fusti-Molnar,  W. A. Goddard III,
 A. Golubeva-Zadorozhnaya,  S. R. Gwaltney,  G. Hawkins,  A. Heyden,
 S. Hirata,  G. Kedziora,  F. J. Keil,  C. Kelley,  Jihan Kim,  R. A. King,
 R. Z. Khaliullin,  P. P. Korambath,  W. Kurlancheek,  A. M. Lee,  M. S. Lee,
 S. V. Levchenko,  Ching Yeh Lin,  D. Liotard,  R. C. Lochan,  I. Lotan,
 P. E. Maslen,  N. Nair,  D. P. O'Neill,  D. Neuhauser,  E. Neuscamman,
 C. M. Oana,  R. Olson,  B. Peters,  R. Peverati,  P. A. Pieniazek,
 Y. M. Rhee,  J. Ritchie,  M. A. Rohrdanz,  E. Rosta,  N. J. Russ,
 H. F. Schaefer III,  N. E. Schultz,  N. Shenvi,  A. C. Simmonett,  A. Sodt,
 D. Stuck,  K. S. Thanthiriwatte,  V. Vanovschi,  Tao Wang,  A. Warshel,
 C. F. Williams,  Q. Wu,  X. Xu,  W. Zhang

 Please cite Q-Chem as follows:
 Y. Shao et al., Mol. Phys. 113, 184-215 (2015)
 DOI: 10.1080/00268976.2014.952696

 Q-Chem 5.2.2 for Intel X86 EM64T Linux

 Parts of Q-Chem use Armadillo 9.800.1 (Horizon Scraper).
 http://arma.sourceforge.net/

 Q-Chem begins on Sun Mar  7 03:09:32 2021

Host: node025
0

     Scratch files written to /home/ymao90/scratch/CCX_CD_-2020210307030514//
The previous job contains 0 fragments, simply inherited here

Checking the input file for inconsistencies... 	...done.

--------------------------------------------------------------
User input:
--------------------------------------------------------------

$molecule
read
$end

$rem
JOBTYPE  FREQ
METHOD  B3LYP
BASIS  6-31+G(D)
SYMMETRY  FALSE
SYM_IGNORE  TRUE
MEM_TOTAL  8000
MEM_STATIC  2000
MAX_SUB_FILE_NUM  16000
BASIS_LIN_DEP_THRESH  6
THRESH  14
SCF_CONVERGENCE  9
GEN_SCFMAN  TRUE
SCF_GUESS  READ
FD_MAT_VEC_PROD  FALSE
XC_GRID  000099000590
IDERIV   1
NL_GRID  1
MAX_SCF_CYCLES  200
ISOTOPES TRUE
$end

$isotopes
1 0
1
 21 2.0141018
$end

$multipole_field
Z   0.003890
$end
--------------------------------------------------------------

    2    -404.5876233574      2.17e-10  Convergence criterion met
 Total energy in the final basis set =     -404.5876233574
 Total energy in the final basis set =     -404.5876229381
   10    -404.5876226834      3.39e-10  Convergence criterion met
 Total energy in the final basis set =     -404.5876226834
   10    -404.5876221460      4.08e-10  Convergence criterion met
 Total energy in the final basis set =     -404.5876221460
   10    -404.5876223458      8.19e-10  Convergence criterion met
 Total energy in the final basis set =     -404.5876223458
   10    -404.5876232730      6.45e-10  Convergence criterion met
 Total energy in the final basis set =     -404.5876232730
   10    -404.5876232903      4.89e-10  Convergence criterion met
 Total energy in the final basis set =     -404.5876232903
    9    -404.5876231050      5.86e-10  Convergence criterion met
 Total energy in the final basis set =     -404.5876231050
   10    -404.5876227153      3.83e-10  Convergence criterion met
 Total energy in the final basis set =     -404.5876227153

                    Orbital Energies (a.u.)
 --------------------------------------------------------------

 Alpha MOs
 -- Occupied --
-19.1207 -14.3676 -10.2867 -10.2191 -10.1786 -10.1772 -10.1681 -10.1674
-10.1643  -1.0313  -0.9277  -0.8153  -0.7336  -0.7327  -0.6293  -0.6027
 -0.5898  -0.5536  -0.5205  -0.4742  -0.4515  -0.4342  -0.4254  -0.4099
 -0.4065  -0.3860  -0.3697  -0.3643  -0.3405  -0.3347  -0.3105  -0.3022
 -0.2992  -0.2557  -0.2514

          Ground-State Mulliken Net Atomic Charges

     Atom                 Charge (a.u.)
  ----------------------------------------
      1 C                    -0.238872
      2 C                    -0.535899
      3 C                    -0.259214
      4 C                    -0.423733
      5 C                    -0.391606
      6 C                    -0.425615
      7 H                     0.208775
      8 H                     0.246114
      9 H                     0.187612
     10 H                     0.209506
     11 H                     0.213675
     12 H                     0.203965
     13 H                     0.213762
     14 H                     0.191357
     15 H                     0.213850
     16 H                     0.204496
     17 H                     0.186303
     18 N                    -0.359779
     19 H                     0.385840
     20 C                     0.328767
     21 H                     0.121206
     22 O                    -0.480509
  ----------------------------------------
  Sum of atomic charges =     0.000000

                    Cartesian Multipole Moments
 -----------------------------------------------------------------
    Charge (ESU x 10^10)
                -0.0000
    Dipole Moment (Debye)
         X      -4.3548      Y      -0.5775      Z      -0.9825
       Tot       4.5015
    Quadrupole Moments (Debye-Ang)
        XX     -54.9767     XY       0.1985     YY     -56.7988
        XZ       5.7558     YZ       0.7505     ZZ     -47.1022

             Standard Nuclear Orientation (Angstroms)
    I     Atom           X                Y                Z
 ----------------------------------------------------------------
    1      C      -2.3807880532     1.0014364793    -2.3835784143
    2      C      -1.5272631586    -0.2107535491    -1.9665891368
    3      C      -2.2119697978    -1.5370460540    -2.3432233351
    4      C      -2.5964993427    -1.5811012935    -3.8314956578
    5      C      -3.4602203189    -0.3743712964    -4.2284338607
    6      C      -2.7629948905     0.9472416973    -3.8721150442
    7      H      -1.5493477554    -2.3734671229    -2.0871276967
    8      H      -0.5519239345    -0.1524655806    -2.4604404649
    9      H      -3.2993196636     1.0133407355    -1.7735687001
   10      H      -1.8343713205     1.9250037804    -2.1547710567
   11      H      -1.6822654049    -1.5905665944    -4.4422196673
   12      H      -3.1235170493    -2.5186071921    -4.0488192634
   13      H      -3.6846617299    -0.4067684539    -5.3012850983
   14      H      -4.4274265842    -0.4297212286    -3.7043856232
   15      H      -1.8561041566     1.0565987212    -4.4841057703
   16      H      -3.4075887050     1.7999945715    -4.1193152068
   17      H      -3.1226893328    -1.6515520241    -1.7315647623
   18      N      -1.2426915297    -0.1743611263    -0.5272528239
   19      H      -2.0281401783    -0.2726796159     0.1055274952
   20      C      -0.0189894478     0.0012098168     0.0346121270
   21      H      -0.0698111179    -0.0033954046     1.1433749665
   22      O       1.0399187696     0.1480633527    -0.5598575261
 ----------------------------------------------------------------

 Frequency:       -16.56                 100.33                 168.09
 Force Cnst:      0.0008                 0.0213                 0.0345
 Red. Mass:       4.7710                 3.5910                 2.0744
 IR Intens:        7.333                  5.333                 34.780
 Frequency:       208.13                 226.70                 335.40
 Force Cnst:      0.0959                 0.0539                 0.1245
 Red. Mass:       3.7575                 1.7808                 1.8779
 IR Intens:        8.100                  0.120                  0.090
 Frequency:       393.80                 400.05                 446.89
 Force Cnst:      0.3434                 0.3556                 0.2654
 Red. Mass:       3.7580                 3.7712                 2.2556
 IR Intens:       15.159                 13.098                  0.513
 Frequency:       459.98                 534.09                 542.41
 Force Cnst:      0.4493                 0.2697                 0.2009
 Red. Mass:       3.6043                 1.6047                 1.1592
 IR Intens:        5.259                  1.664                 41.974
 Frequency:       746.19                 799.09                 823.62
 Force Cnst:      1.3663                 0.5430                 0.9764
 Red. Mass:       4.1647                 1.4434                 2.4431
 IR Intens:        2.590                  0.088                  0.819
 Frequency:       852.73                 904.97                 917.57
 Force Cnst:      0.8781                 0.9090                 0.9782
 Red. Mass:       2.0497                 1.8839                 1.9720
 IR Intens:        0.700                  8.087                  0.412
 Frequency:       938.96                 964.90                1009.02
 Force Cnst:      0.7774                 1.2957                 0.9664
 Red. Mass:       1.4966                 2.3620                 1.6111
 IR Intens:        0.236                  3.158                  0.025
 Frequency:      1040.90                1065.90                1070.39
 Force Cnst:      1.1538                 2.2820                 0.9625
 Red. Mass:       1.8074                 3.4091                 1.4258
 IR Intens:        2.433                  8.678                  1.200
 Frequency:      1098.78                1105.71                1176.21
 Force Cnst:      0.9327                 1.5324                 1.8093
 Red. Mass:       1.3113                 2.1274                 2.2197
 IR Intens:        0.008                  1.191                  0.632
 Frequency:      1218.75                1221.40                1281.87
 Force Cnst:      1.3158                 1.5866                 1.3046
 Red. Mass:       1.5035                 1.8051                 1.3475
 IR Intens:       15.871                 65.245                 12.705
 Frequency:      1296.57                1300.94                1346.08
 Force Cnst:      1.2486                 1.3135                 1.3578
 Red. Mass:       1.2606                 1.3173                 1.2719
 IR Intens:        3.236                  6.122                  4.714
 Frequency:      1348.52                1381.10                1385.43
 Force Cnst:      1.3359                 1.5464                 1.5162
 Red. Mass:       1.2468                 1.3760                 1.3408
 IR Intens:        8.912                  0.488                  0.554
 Frequency:      1393.73                1395.53                1407.07
 Force Cnst:      1.6969                 1.6901                 1.7206
 Red. Mass:       1.4827                 1.4729                 1.4750
 IR Intens:        0.109                  8.458                  1.867
 Frequency:      1430.83                1503.27                1508.98
 Force Cnst:      1.4548                 1.4474                 1.4693
 Red. Mass:       1.2061                 1.0871                 1.0952
 IR Intens:        8.090                  0.107                  3.076
 Frequency:      1511.19                1515.86                1527.74
 Force Cnst:      1.4719                 1.4664                 1.5182
 Red. Mass:       1.0939                 1.0831                 1.1040
 IR Intens:        6.152                 14.537                  1.337
 Frequency:      1549.44                1778.85                2933.48
 Force Cnst:      2.5461                13.8966                 5.4922
 Red. Mass:       1.8000                 7.4538                 1.0832
 IR Intens:      188.159                440.083                177.204
 Frequency:      2990.21                2996.55                3009.80
 Force Cnst:      5.6376                 5.6610                 5.7205
 Red. Mass:       1.0701                 1.0700                 1.0718
 IR Intens:       14.907                 54.999                 35.598
 Frequency:      3031.74                3034.29                3068.95
 Force Cnst:      5.7604                 5.7631                 6.0504
 Red. Mass:       1.0637                 1.0624                 1.0903
 IR Intens:       13.309                 39.335                 41.189
 Frequency:      3071.45                3074.78                3077.43
 Force Cnst:      6.0634                 6.1360                 6.1220
 Red. Mass:       1.0909                 1.1016                 1.0971
 IR Intens:       58.968                 24.789                 50.888
 Frequency:      3083.06                3101.71                3586.32
 Force Cnst:      6.1372                 6.1652                 8.1628
 Red. Mass:       1.0959                 1.0877                 1.0772
 IR Intens:       41.928                 16.361                 10.425
 Frequency:       -16.46                  99.67                 150.57
 Force Cnst:      0.0008                 0.0211                 0.0356
 Red. Mass:       4.7874                 3.6120                 2.6639
 IR Intens:        7.286                  5.194                 27.339
 Frequency:       207.92                 226.68                 335.21
 Force Cnst:      0.0959                 0.0539                 0.1250
 Red. Mass:       3.7649                 1.7805                 1.8879
 IR Intens:        7.864                  0.079                  0.078
 Frequency:       388.95                 395.41                 446.76
 Force Cnst:      0.3496                 0.3643                 0.2666
 Red. Mass:       3.9221                 3.9543                 2.2670
 IR Intens:       10.696                 10.524                  0.557
 Frequency:       457.85                 526.57                 531.52
 Force Cnst:      0.4274                 0.1874                 0.2677
 Red. Mass:       3.4602                 1.1474                 1.6083
 IR Intens:        1.632                 56.955                  1.147
 Frequency:       736.72                 799.09                 821.38
 Force Cnst:      1.3138                 0.5431                 0.9633
 Red. Mass:       4.1084                 1.4435                 2.4234
 IR Intens:        2.397                  0.088                  0.625
 Frequency:       851.38                 851.92                 905.08
 Force Cnst:      0.9307                 1.6132                 0.9041
 Red. Mass:       2.1792                 3.7727                 1.8733
 IR Intens:        0.796                  0.368                  8.001
 Frequency:       914.27                 939.01                 940.18
 Force Cnst:      1.0483                 0.8222                 1.0518
 Red. Mass:       2.1287                 1.5827                 2.0195
 IR Intens:        0.871                  0.638                  1.585
 Frequency:      1021.76                1041.26                1069.75
 Force Cnst:      1.4220                 1.1686                 0.9538
 Red. Mass:       2.3117                 1.8293                 1.4146
 IR Intens:        3.313                  1.752                  0.921
 Frequency:      1098.74                1105.30                1115.84
 Force Cnst:      0.9204                 1.5629                 2.3706
 Red. Mass:       1.2940                 2.1713                 3.2316
 IR Intens:        0.010                  1.139                 15.242
 Frequency:      1182.08                1218.83                1227.09
 Force Cnst:      2.0690                 1.2597                 1.8906
 Red. Mass:       2.5131                 1.4392                 2.1311
 IR Intens:        8.755                  0.784                 61.934
 Frequency:      1281.34                1296.55                1300.36
 Force Cnst:      1.3004                 1.2486                 1.3044
 Red. Mass:       1.3443                 1.2606                 1.3092
 IR Intens:       10.525                  3.216                  4.909
 Frequency:      1345.53                1347.89                1381.07
 Force Cnst:      1.3321                 1.3469                 1.5466
 Red. Mass:       1.2488                 1.2582                 1.3763
 IR Intens:        6.449                  4.800                  0.482
 Frequency:      1385.36                1393.72                1395.52
 Force Cnst:      1.5152                 1.6968                 1.6903
 Red. Mass:       1.3400                 1.4826                 1.4731
 IR Intens:        0.517                  0.111                  8.652
 Frequency:      1406.55                1503.27                1508.97
 Force Cnst:      1.7112                 1.4475                 1.4692
 Red. Mass:       1.4680                 1.0871                 1.0951
 IR Intens:        1.501                  0.107                  3.183
 Frequency:      1511.19                1515.84                1527.58
 Force Cnst:      1.4718                 1.4675                 1.5246
 Red. Mass:       1.0939                 1.0840                 1.1089
 IR Intens:        6.140                 14.640                  2.673
 Frequency:      1543.60                1758.61                2168.06
 Force Cnst:      2.3995                16.2208                 6.6977
 Red. Mass:       1.7093                 8.9019                 2.4184
 IR Intens:      153.280                471.980                130.679
 Frequency:      2990.21                2996.54                3009.80
 Force Cnst:      5.6376                 5.6609                 5.7205
 Red. Mass:       1.0701                 1.0700                 1.0718
 IR Intens:       14.705                 52.829                 35.459
 Frequency:      3031.74                3034.29                3068.95
 Force Cnst:      5.7604                 5.7631                 6.0503
 Red. Mass:       1.0637                 1.0624                 1.0903
 IR Intens:       13.310                 39.446                 41.280
 Frequency:      3071.45                3074.78                3077.43
 Force Cnst:      6.0634                 6.1360                 6.1220
 Red. Mass:       1.0909                 1.1016                 1.0971
 IR Intens:       59.044                 24.788                 50.987
 Frequency:      3083.06                3101.69                3586.26
 Force Cnst:      6.1372                 6.1652                 8.1623
 Red. Mass:       1.0959                 1.0877                 1.0772
 IR Intens:       41.783                 17.222                 10.493

 STANDARD THERMODYNAMIC QUANTITIES AT   298.18 K  AND     1.00 ATM

   This Molecule has  1 Imaginary Frequencies
   Zero point vibrational energy:      121.948 kcal/mol

   Atom    1 Element C  Has Mass   12.00000
   Atom    2 Element C  Has Mass   12.00000
   Atom    3 Element C  Has Mass   12.00000
   Atom    4 Element C  Has Mass   12.00000
   Atom    5 Element C  Has Mass   12.00000
   Atom    6 Element C  Has Mass   12.00000
   Atom    7 Element H  Has Mass    1.00783
   Atom    8 Element H  Has Mass    1.00783
   Atom    9 Element H  Has Mass    1.00783
   Atom   10 Element H  Has Mass    1.00783
   Atom   11 Element H  Has Mass    1.00783
   Atom   12 Element H  Has Mass    1.00783
   Atom   13 Element H  Has Mass    1.00783
   Atom   14 Element H  Has Mass    1.00783
   Atom   15 Element H  Has Mass    1.00783
   Atom   16 Element H  Has Mass    1.00783
   Atom   17 Element H  Has Mass    1.00783
   Atom   18 Element N  Has Mass   14.00307
   Atom   19 Element H  Has Mass    1.00783
   Atom   20 Element C  Has Mass   12.00000
   Atom   21 Element H  Has Mass    2.01410
   Atom   22 Element O  Has Mass   15.99491
   Molecular Mass:   128.106042 amu
   Principal axes and moments of inertia in amu*Bohr^2:
                             1           2           3
    Eigenvalues --      533.27585  2043.73800  2250.20695
          X               0.65781    -0.05070     0.75148
          Y               0.08087     0.99672    -0.00354
          Z               0.74883    -0.06310    -0.65975
   Rotational Symmetry Number is   1
   The Molecule is an Asymmetric Top
   Translational Enthalpy:        0.889 kcal/mol
   Rotational Enthalpy:           0.889 kcal/mol
   Vibrational Enthalpy:        125.275 kcal/mol
   gas constant (RT):             0.593 kcal/mol
   Translational Entropy:        40.457  cal/mol.K
   Rotational Entropy:           29.285  cal/mol.K
   Vibrational Entropy:          18.410  cal/mol.K

   Total Enthalpy:              127.645 kcal/mol
   Total Entropy:                88.151  cal/mol.K

 Total job time:  5091.18s(wall), 80632.64s(cpu)
        *  Thank you very much for using Q-Chem.  Have a nice day.  *
