 Q-Chem 5.2 (devel), Q-Chem, Inc., Pleasanton, CA (2019)
 Q-Chem 5.2.2 for Intel X86 EM64T Linux

User input:
--------------------------------------------------------------
$molecule
0 1
C     -2.4083508923    0.9984834764   -2.3662547437
C     -1.5543120384   -0.2118403749   -1.9459885704
C     -2.2384976761   -1.5367925874   -2.3261896725
C     -2.5867463449   -1.5816552836   -3.8234193167
C     -3.4377297730   -0.3731774783   -4.2445934317
C     -2.7551397527    0.9499468362   -3.8636626912
H     -1.5849547626   -2.3750094827   -2.0545927530
H     -0.5831065672   -0.1532425547   -2.4485260558
H     -3.3388117820    1.0024650072   -1.7759883684
H     -1.8720534969    1.9234708349   -2.1213670712
H     -1.6555784977   -1.5918293252   -4.4093866053
H     -3.1102152921   -2.5181807775   -4.0551406051
H     -3.6290653549   -0.4033428377   -5.3251377272
H     -4.4201020066   -0.4306546907   -3.7508934023
H     -1.8320207629    1.0648782183   -4.4511997179
H     -3.3973970401    1.8010825553   -4.1242295555
H     -3.1618885583   -1.6469527918   -1.7346449512
N     -1.2474445251   -0.1731895513   -0.5151412109
H     -2.0131265263   -0.2687147311    0.1418849346
C      0.0000000000    0.0000000000    0.0000000000
H      0.0000000000    0.0000000000    1.1070732462
O      1.0278769477    0.1402881570   -0.6492362509
$end

$rem
JOBTYPE  OPT
METHOD  B3LYP
BASIS  6-31+G(D)
SYMMETRY  FALSE
SYM_IGNORE  TRUE
MEM_TOTAL  8000
MEM_STATIC  2000
MAX_SUB_FILE_NUM  16000
BASIS_LIN_DEP_THRESH  6
THRESH  14
SCF_CONVERGENCE  9
GEN_SCFMAN  TRUE
SCF_GUESS  SAD
FD_MAT_VEC_PROD  FALSE
XC_GRID  000099000590
NL_GRID  1
MAX_SCF_CYCLES  200
GEOM_OPT_TOL_GRADIENT  100
GEOM_OPT_TOL_DISPLACEMENT  100
GEOM_OPT_TOL_ENERGY  10
SOLVENT_METHOD       PCM
$end

$PCM
THEORY                     CPCM
METHOD                     SWIG
SOLVER                     INVERSION
HPOINTS                    302
HEAVYPOINTS                302
$END

$SOLVENT
DIELECTRIC                 62.0
$END

--------------------------------------------------------------

   15    -404.6015898158      4.48e-10  Convergence criterion met
 Total energy in the final basis set =     -404.6015898158
   13    -404.6021271190      3.94e-10  Convergence criterion met
 Total energy in the final basis set =     -404.6021271190
   13    -404.6021971342      4.01e-10  Convergence criterion met
 Total energy in the final basis set =     -404.6021971342
   13    -404.6021834846      4.05e-10  Convergence criterion met
 Total energy in the final basis set =     -404.6021834846
   13    -404.6022004485      4.03e-10  Convergence criterion met
 Total energy in the final basis set =     -404.6022004485
   13    -404.6022006335      4.03e-10  Convergence criterion met
 Total energy in the final basis set =     -404.6022006335
   13    -404.6022010196      4.07e-10  Convergence criterion met
 Total energy in the final basis set =     -404.6022010196
   13    -404.6022014223      4.11e-10  Convergence criterion met
 Total energy in the final basis set =     -404.6022014223
   13    -404.6022017474      4.15e-10  Convergence criterion met
 Total energy in the final basis set =     -404.6022017474
   13    -404.6022018408      4.13e-10  Convergence criterion met
 Total energy in the final basis set =     -404.6022018408
 Final energy is   -404.602201840802
 **  OPTIMIZATION CONVERGED  **
 Total job time:  762.73s(wall), 10829.59s(cpu)
        *  Thank you very much for using Q-Chem.  Have a nice day.  *

User input: 2 of 2

                  Welcome to Q-Chem
     A Quantum Leap Into The Future Of Chemistry

 Q-Chem 5.2 (devel), Q-Chem, Inc., Pleasanton, CA (2019)

 Yihan Shao,  Zhengting Gan,  E. Epifanovsky,  A. T. B. Gilbert,  M. Wormit,
 J. Kussmann,  A. W. Lange,  A. Behn,  Jia Deng,  Xintian Feng,  D. Ghosh,
 M. Goldey,  P. R. Horn,  L. D. Jacobson,  I. Kaliman,  T. Kus,  A. Landau,
 Jie Liu,  E. I. Proynov,  R. M. Richard,  R. P. Steele,  E. J. Sundstrom,
 H. L. Woodcock III,  P. M. Zimmerman,  D. Zuev,  B. Alam,  B. Albrecht,
 E. Alguire,  S. A. Baeppler,  D. Barton,  Z. Benda,  Y. A. Bernard,
 E. J. Berquist,  K. B. Bravaya,  H. Burton,  K. Carter-Fenk,  D. Casanova,
 Chun-Min Chang,  Yunqing Chen,  A. Chien,  K. D. Closser,  M. P. Coons,
 S. Coriani,  S. Dasgupta,  A. L. Dempwolff,  M. Diedenhofen,  Hainam Do,
 R. G. Edgar,  Po-Tung Fang,  S. Faraji,  S. Fatehi,  Qingguo Feng,
 J. Fosso-Tande,  J. Gayvert,  Qinghui Ge,  A. Ghysels,  G. Gidofalvi,
 J. Gomes,  J. Gonthier,  A. Gunina,  D. Hait,  M. W. D. Hanson-Heine,
 P. H. P. Harbach,  A. W. Hauser,  M. F. Herbst,  J. E. Herr,
 E. G. Hohenstein,  Z. C. Holden,  Kerwin Hui,  B. C. Huynh,  T.-C. Jagau,
 Hyunjun Ji,  B. Kaduk,  K. Khistyaev,  Jaehoon Kim,  P. Klunzinger,  K. Koh,
 D. Kosenkov,  L. Koulias,  T. Kowalczyk,  C. M. Krauter,  A. Kunitsa,
 Ka Un Lao,  A. Laurent,  K. V. Lawler,  Joonho Lee,  D. Lefrancois,
 S. Lehtola,  D. S. Levine,  Yi-Pei Li,  You-Sheng Lin,  Fenglai Liu,
 Kuan-Yu Liu,  E. Livshits,  M. Loipersberger,  A. Luenser,  P. Manohar,
 E. Mansoor,  S. F. Manzer,  Shan-Ping Mao,  Yuezhi Mao,  N. Mardirossian,
 A. V. Marenich,  T. Markovich,  L. A. Martinez-Martinez,  S. A. Maurer,
 N. J. Mayhall,  S. C. McKenzie,  J.-M. Mewes,  P. Morgante,  A. F. Morrison,
 J. W. Mullinax,  K. Nanda,  T. S. Nguyen-Beck,  R. Olivares-Amaya,
 J. A. Parkhill,  S. K. Paul,  F. Pavosevic,  Zheng Pei,  T. M. Perrine,
 F. Plasser,  P. Pokhilko,  S. Prager,  A. Prociuk,  E. Ramos,  B. Rana,
 D. R. Rehn,  F. Rob,  M. Scheurer,  M. Schneider,  N. Sergueev,
 S. M. Sharada,  S. Sharma,  D. W. Small,  T. Stauch,  C. J. Stein,
 T. Stein,  Yu-Chuan Su,  S. P. Veccham,  Zhen Tao,  A. J. W. Thom,
 A. Tkatchenko,  T. Tsuchimochi,  N. M. Tubman,  L. Vogt,  M. L. Vidal,
 O. Vydrov,  M. A. Watson,  J. Wenzel,  M. de Wergifosse,  T. A. Wesolowski,
 A. White,  J. Witte,  A. Yamada,  Jun Yang,  K. Yao,  S. Yeganeh,
 S. R. Yost,  Zhi-Qiang You,  A. Zech,  Igor Ying Zhang,  Xing Zhang,
 Yan Zhao,  Ying Zhu,  B. R. Brooks,  G. K. L. Chan,  C. J. Cramer,
 M. S. Gordon,  W. J. Hehre,  A. Klamt,  M. W. Schmidt,  C. D. Sherrill,
 D. G. Truhlar,  A. Aspuru-Guzik,  R. Baer,  A. T. Bell,  N. A. Besley,
 Jeng-Da Chai,  A. E. DePrince, III,  R. A. DiStasio Jr.,  A. Dreuw,
 B. D. Dunietz,  T. R. Furlani,  Chao-Ping Hsu,  Yousung Jung,  Jing Kong,
 D. S. Lambrecht,  WanZhen Liang,  C. Ochsenfeld,  V. A. Rassolov,
 L. V. Slipchenko,  J. E. Subotnik,  T. Van Voorhis,  J. M. Herbert,
 A. I. Krylov,  P. M. W. Gill,  M. Head-Gordon

 Contributors to earlier versions of Q-Chem not listed above:
 R. D. Adamson,  B. Austin,  J. Baker,  G. J. O. Beran,  K. Brandhorst,
 S. T. Brown,  E. F. C. Byrd,  A. K. Chakraborty,  C.-L. Cheng,
 Siu Hung Chien,  D. M. Chipman,  D. L. Crittenden,  H. Dachsel,
 R. J. Doerksen,  A. D. Dutoi,  L. Fusti-Molnar,  W. A. Goddard III,
 A. Golubeva-Zadorozhnaya,  S. R. Gwaltney,  G. Hawkins,  A. Heyden,
 S. Hirata,  G. Kedziora,  F. J. Keil,  C. Kelley,  Jihan Kim,  R. A. King,
 R. Z. Khaliullin,  P. P. Korambath,  W. Kurlancheek,  A. M. Lee,  M. S. Lee,
 S. V. Levchenko,  Ching Yeh Lin,  D. Liotard,  R. C. Lochan,  I. Lotan,
 P. E. Maslen,  N. Nair,  D. P. O'Neill,  D. Neuhauser,  E. Neuscamman,
 C. M. Oana,  R. Olson,  B. Peters,  R. Peverati,  P. A. Pieniazek,
 Y. M. Rhee,  J. Ritchie,  M. A. Rohrdanz,  E. Rosta,  N. J. Russ,
 H. F. Schaefer III,  N. E. Schultz,  N. Shenvi,  A. C. Simmonett,  A. Sodt,
 D. Stuck,  K. S. Thanthiriwatte,  V. Vanovschi,  Tao Wang,  A. Warshel,
 C. F. Williams,  Q. Wu,  X. Xu,  W. Zhang

 Please cite Q-Chem as follows:
 Y. Shao et al., Mol. Phys. 113, 184-215 (2015)
 DOI: 10.1080/00268976.2014.952696

 Q-Chem 5.2.2 for Intel X86 EM64T Linux

 Parts of Q-Chem use Armadillo 9.800.1 (Horizon Scraper).
 http://arma.sourceforge.net/

 Q-Chem begins on Sun Aug  8 22:40:17 2021

Host: node026
0

     Scratch files written to /home/ymao90/scratch/CCX_CD_0_GLY_6220210808222731//
The previous job contains 0 fragments, simply inherited here
Symmetry turned off for PCM/SM12/SMD calculation

Checking the input file for inconsistencies... 	...done.

--------------------------------------------------------------
User input:
--------------------------------------------------------------

$molecule
read
$end

$rem
JOBTYPE  FREQ
METHOD  B3LYP
BASIS  6-31+G(D)
SYMMETRY  FALSE
SYM_IGNORE  TRUE
MEM_TOTAL  8000
MEM_STATIC  2000
MAX_SUB_FILE_NUM  16000
BASIS_LIN_DEP_THRESH  6
THRESH  14
SCF_CONVERGENCE  9
GEN_SCFMAN  TRUE
SCF_GUESS  READ
FD_MAT_VEC_PROD  FALSE
XC_GRID  000099000590
NL_GRID  1
MAX_SCF_CYCLES  200
ISOTOPES TRUE
SOLVENT_METHOD       PCM
$end

$PCM
THEORY                     CPCM
METHOD                     SWIG
SOLVER                     INVERSION
HPOINTS                    302
HEAVYPOINTS                302
$END

$SOLVENT
DIELECTRIC                 62.0
$END

$isotopes
1 0
1
 21 2.0141018
$end
--------------------------------------------------------------

             Standard Nuclear Orientation (Angstroms)
    I     Atom           X                Y                Z
 ----------------------------------------------------------------
    1      C      -2.3898664966     0.9941733377    -2.3691052446
    2      C      -1.5386870235    -0.2221350575    -1.9604773233
    3      C      -2.2353988395    -1.5425417308    -2.3324222893
    4      C      -2.5975762186    -1.5828057324    -3.8264804125
    5      C      -3.4463034564    -0.3691026396    -4.2370966978
    6      C      -2.7497574147     0.9489006852    -3.8634808481
    7      H      -1.5840854529    -2.3860402315    -2.0702963037
    8      H      -0.5732678626    -0.1700941879    -2.4740453316
    9      H      -3.3117812283     0.9970916977    -1.7681478992
   10      H      -1.8458913678     1.9168843281    -2.1301296359
   11      H      -1.6723562501    -1.5962177361    -4.4220527314
   12      H      -3.1301442208    -2.5159992988    -4.0510994274
   13      H      -3.6486345840    -0.3973644899    -5.3159318078
   14      H      -4.4215603011    -0.4202427230    -3.7295258540
   15      H      -1.8310881053     1.0552234651    -4.4599358123
   16      H      -3.3893441897     1.8048510747    -4.1150261236
   17      H      -3.1512048673    -1.6414801374    -1.7298432580
   18      N      -1.2363563813    -0.1888501714    -0.5253279333
   19      H      -2.0098499205    -0.3133811941     0.1207134390
   20      C      -0.0239579482     0.0226163245     0.0156980750
   21      H      -0.0421222015     0.0115657901     1.1177006636
   22      O       1.0305696283     0.2109812457    -0.6103217639
 ----------------------------------------------------------------

   13    -404.6022018397      4.12e-10  Convergence criterion met
 Total energy in the final basis set =     -404.6022018397

                    Orbital Energies (a.u.)
 --------------------------------------------------------------

 Alpha MOs
 -- Occupied --
-19.1349 -14.3717 -10.2939 -10.2253 -10.1825 -10.1819 -10.1796 -10.1794
-10.1774  -1.0389  -0.9331  -0.8241  -0.7426  -0.7406  -0.6367  -0.6109
 -0.5916  -0.5629  -0.5263  -0.4837  -0.4608  -0.4417  -0.4371  -0.4197
 -0.4175  -0.3951  -0.3782  -0.3735  -0.3472  -0.3428  -0.3213  -0.3116
 -0.3091  -0.2712  -0.2609

          Ground-State Mulliken Net Atomic Charges

     Atom                 Charge (a.u.)
  ----------------------------------------
      1 C                    -0.264120
      2 C                    -0.428852
      3 C                    -0.295903
      4 C                    -0.452152
      5 C                    -0.381000
      6 C                    -0.457836
      7 H                     0.211558
      8 H                     0.226745
      9 H                     0.214827
     10 H                     0.209853
     11 H                     0.207567
     12 H                     0.203385
     13 H                     0.199326
     14 H                     0.203206
     15 H                     0.207384
     16 H                     0.203250
     17 H                     0.214869
     18 N                    -0.384353
     19 H                     0.453057
     20 C                     0.346120
     21 H                     0.185167
     22 O                    -0.622098
  ----------------------------------------
  Sum of atomic charges =     0.000000

                    Cartesian Multipole Moments
 -----------------------------------------------------------------
    Charge (ESU x 10^10)
                 0.0000
    Dipole Moment (Debye)
         X      -5.9276      Y      -0.9915      Z       0.5628
       Tot       6.0362
    Quadrupole Moments (Debye-Ang)
        XX     -53.4366     XY       0.3000     YY     -56.9550
        XZ       4.8969     YZ       0.8307     ZZ     -51.7733

 Frequency:        -3.93                  95.29                 191.41
 Force Cnst:      0.0000                 0.0199                 0.0490
 Red. Mass:       4.7949                 3.7215                 2.2696
 IR Intens:       15.384                  9.779                 57.435
 Frequency:       209.75                 226.56                 333.42
 Force Cnst:      0.0883                 0.0542                 0.1235
 Red. Mass:       3.4051                 1.7920                 1.8855
 IR Intens:       14.900                  0.270                  0.126
 Frequency:       396.62                 410.35                 449.16
 Force Cnst:      0.3294                 0.3672                 0.2746
 Red. Mass:       3.5535                 3.7012                 2.3102
 IR Intens:       14.313                 30.526                  0.874
 Frequency:       464.95                 531.42                 601.50
 Force Cnst:      0.4560                 0.2686                 0.2449
 Red. Mass:       3.5802                 1.6143                 1.1489
 IR Intens:       12.267                  2.524                104.104
 Frequency:       744.66                 798.87                 821.42
 Force Cnst:      1.3723                 0.5419                 0.9708
 Red. Mass:       4.2002                 1.4411                 2.4421
 IR Intens:        6.022                  0.182                  0.934
 Frequency:       849.85                 901.51                 916.58
 Force Cnst:      0.8470                 0.8755                 0.9699
 Red. Mass:       1.9905                 1.8285                 1.9596
 IR Intens:        2.985                 17.055                  1.238
 Frequency:       935.82                 964.04                1027.62
 Force Cnst:      0.7801                 1.2869                 0.9888
 Red. Mass:       1.5118                 2.3501                 1.5892
 IR Intens:        0.510                  7.648                  0.040
 Frequency:      1035.55                1063.14                1069.55
 Force Cnst:      1.1127                 0.9350                 2.4276
 Red. Mass:       1.7612                 1.4041                 3.6018
 IR Intens:        2.768                  2.906                 22.318
 Frequency:      1091.45                1103.68                1174.11
 Force Cnst:      0.8073                 1.7857                 1.8889
 Red. Mass:       1.1502                 2.4882                 2.3256
 IR Intens:        0.009                  2.063                  6.729
 Frequency:      1209.97                1243.10                1274.94
 Force Cnst:      1.2799                 1.5728                 1.2627
 Red. Mass:       1.4839                 1.7275                 1.3184
 IR Intens:        1.612                 57.294                 16.445
 Frequency:      1287.54                1297.26                1341.88
 Force Cnst:      1.2344                 1.3962                 1.3580
 Red. Mass:       1.2638                 1.4081                 1.2801
 IR Intens:        2.750                 11.681                  3.052
 Frequency:      1345.14                1374.79                1382.90
 Force Cnst:      1.3173                 1.5437                 1.5730
 Red. Mass:       1.2356                 1.3862                 1.3960
 IR Intens:       12.493                  1.513                  0.491
 Frequency:      1384.44                1387.30                1404.98
 Force Cnst:      1.6505                 1.6891                 1.7189
 Red. Mass:       1.4616                 1.4896                 1.4779
 IR Intens:        0.121                 11.679                  0.862
 Frequency:      1425.63                1493.63                1495.92
 Force Cnst:      1.5064                 1.4303                 1.4326
 Red. Mass:       1.2580                 1.0881                 1.0866
 IR Intens:       75.273                  0.119                  5.886
 Frequency:      1499.07                1499.80                1511.79
 Force Cnst:      1.4545                 1.4501                 1.4828
 Red. Mass:       1.0986                 1.0941                 1.1011
 IR Intens:        7.764                 10.371                  0.520
 Frequency:      1560.32                1690.18                3014.12
 Force Cnst:      2.7097                 9.1054                 5.7221
 Red. Mass:       1.8891                 5.4098                 1.0690
 IR Intens:      332.298                809.685                 35.842
 Frequency:      3015.20                3018.54                3019.44
 Force Cnst:      5.7219                 5.7174                 5.7045
 Red. Mass:       1.0682                 1.0650                 1.0620
 IR Intens:       50.929                 12.608                 22.462
 Frequency:      3021.29                3036.04                3061.97
 Force Cnst:      5.7150                 5.8978                 6.0475
 Red. Mass:       1.0626                 1.0860                 1.0948
 IR Intens:      135.194                119.862                118.349
 Frequency:      3063.37                3066.96                3068.37
 Force Cnst:      6.0637                 6.0765                 6.0879
 Red. Mass:       1.0967                 1.0965                 1.0975
 IR Intens:      132.200                 75.771                106.724
 Frequency:      3070.23                3096.99                3578.49
 Force Cnst:      6.1132                 6.1472                 8.1372
 Red. Mass:       1.1007                 1.0878                 1.0785
 IR Intens:       46.426                 62.958                 70.003
 Frequency:        -3.91                  94.62                 171.93
 Force Cnst:      0.0000                 0.0197                 0.0489
 Red. Mass:       4.8042                 3.7419                 2.8071
 IR Intens:       15.359                  9.507                 48.531
 Frequency:       208.83                 226.55                 333.21
 Force Cnst:      0.0910                 0.0542                 0.1240
 Red. Mass:       3.5422                 1.7916                 1.8956
 IR Intens:       11.243                  0.207                  0.112
 Frequency:       391.40                 403.97                 448.88
 Force Cnst:      0.3300                 0.3856                 0.2787
 Red. Mass:       3.6555                 4.0098                 2.3478
 IR Intens:       12.794                 21.215                  0.836
 Frequency:       460.50                 528.86                 592.78
 Force Cnst:      0.4196                 0.2658                 0.2352
 Red. Mass:       3.3581                 1.6132                 1.1361
 IR Intens:        3.615                  2.022                126.124
 Frequency:       735.24                 798.87                 819.36
 Force Cnst:      1.3249                 0.5419                 0.9568
 Red. Mass:       4.1598                 1.4412                 2.4189
 IR Intens:        5.783                  0.181                  0.693
 Frequency:       848.83                 863.55                 901.55
 Force Cnst:      0.8593                 1.7721                 0.8727
 Red. Mass:       2.0242                 4.0334                 1.8223
 IR Intens:        3.505                  1.030                 16.829
 Frequency:       914.28                 935.89                 941.96
 Force Cnst:      1.0090                 0.7819                 1.1787
 Red. Mass:       2.0488                 1.5151                 2.2548
 IR Intens:        2.113                  0.666                  7.034
 Frequency:      1021.48                1036.00                1062.36
 Force Cnst:      1.4207                 1.1357                 0.9365
 Red. Mass:       2.3109                 1.7959                 1.4083
 IR Intens:        8.059                  1.876                  2.331
 Frequency:      1091.39                1103.19                1118.30
 Force Cnst:      0.8015                 1.8159                 2.4261
 Red. Mass:       1.1420                 2.5325                 3.2926
 IR Intens:        0.009                  1.897                 26.759
 Frequency:      1178.09                1209.55                1245.79
 Force Cnst:      2.0632                 1.2810                 1.8426
 Red. Mass:       2.5231                 1.4861                 2.0151
 IR Intens:       19.091                  1.347                 44.134
 Frequency:      1274.36                1287.53                1295.93
 Force Cnst:      1.2571                 1.2345                 1.3784
 Red. Mass:       1.3138                 1.2639                 1.3930
 IR Intens:       13.621                  2.702                  7.035
 Frequency:      1341.54                1344.27                1374.74
 Force Cnst:      1.3428                 1.3135                 1.5433
 Red. Mass:       1.2664                 1.2337                 1.3860
 IR Intens:        4.261                  9.011                  1.446
 Frequency:      1382.83                1384.44                1387.29
 Force Cnst:      1.5717                 1.6510                 1.6882
 Red. Mass:       1.3951                 1.4620                 1.4888
 IR Intens:        0.421                  0.118                 11.223
 Frequency:      1404.49                1493.63                1495.92
 Force Cnst:      1.7066                 1.4303                 1.4326
 Red. Mass:       1.4684                 1.0881                 1.0866
 IR Intens:        0.583                  0.121                  5.935
 Frequency:      1499.07                1499.79                1511.76
 Force Cnst:      1.4545                 1.4500                 1.4829
 Red. Mass:       1.0986                 1.0941                 1.1013
 IR Intens:        7.744                 10.213                  0.725
 Frequency:      1554.01                1666.87                2243.12
 Force Cnst:      2.5248                14.0278                 7.0976
 Red. Mass:       1.7744                 8.5691                 2.3942
 IR Intens:      270.634                925.549                 98.614
 Frequency:      3014.12                3015.20                3018.55
 Force Cnst:      5.7220                 5.7219                 5.7172
 Red. Mass:       1.0690                 1.0682                 1.0650
 IR Intens:       35.197                 51.014                 11.964
 Frequency:      3019.44                3021.29                3061.96
 Force Cnst:      5.7045                 5.7150                 6.0475
 Red. Mass:       1.0620                 1.0626                 1.0948
 IR Intens:       22.073                139.201                121.272
 Frequency:      3063.37                3066.96                3068.36
 Force Cnst:      6.0637                 6.0767                 6.0877
 Red. Mass:       1.0967                 1.0965                 1.0975
 IR Intens:      132.206                 75.600                105.016
 Frequency:      3070.23                3096.94                3578.45
 Force Cnst:      6.1132                 6.1471                 8.1368
 Red. Mass:       1.1007                 1.0878                 1.0785
 IR Intens:       46.385                 66.205                 70.685

 STANDARD THERMODYNAMIC QUANTITIES AT   298.18 K  AND     1.00 ATM

   This Molecule has  1 Imaginary Frequencies
   Zero point vibrational energy:      121.833 kcal/mol

   Atom    1 Element C  Has Mass   12.00000
   Atom    2 Element C  Has Mass   12.00000
   Atom    3 Element C  Has Mass   12.00000
   Atom    4 Element C  Has Mass   12.00000
   Atom    5 Element C  Has Mass   12.00000
   Atom    6 Element C  Has Mass   12.00000
   Atom    7 Element H  Has Mass    1.00783
   Atom    8 Element H  Has Mass    1.00783
   Atom    9 Element H  Has Mass    1.00783
   Atom   10 Element H  Has Mass    1.00783
   Atom   11 Element H  Has Mass    1.00783
   Atom   12 Element H  Has Mass    1.00783
   Atom   13 Element H  Has Mass    1.00783
   Atom   14 Element H  Has Mass    1.00783
   Atom   15 Element H  Has Mass    1.00783
   Atom   16 Element H  Has Mass    1.00783
   Atom   17 Element H  Has Mass    1.00783
   Atom   18 Element N  Has Mass   14.00307
   Atom   19 Element H  Has Mass    1.00783
   Atom   20 Element C  Has Mass   12.00000
   Atom   21 Element H  Has Mass    2.01410
   Atom   22 Element O  Has Mass   15.99491
   Molecular Mass:   128.106042 amu
   Principal axes and moments of inertia in amu*Bohr^2:
                             1           2           3
    Eigenvalues --      537.69441  2026.75048  2231.05219
          X               0.65880    -0.03546     0.75149
          Y               0.09022     0.99540    -0.03212
          Z               0.74689    -0.08896    -0.65897
   Rotational Symmetry Number is   1
   The Molecule is an Asymmetric Top
   Translational Enthalpy:        0.889 kcal/mol
   Rotational Enthalpy:           0.889 kcal/mol
   Vibrational Enthalpy:        125.114 kcal/mol
   gas constant (RT):             0.593 kcal/mol
   Translational Entropy:        40.457  cal/mol.K
   Rotational Entropy:           29.276  cal/mol.K
   Vibrational Entropy:          18.096  cal/mol.K

   Total Enthalpy:              127.484 kcal/mol
   Total Entropy:                87.830  cal/mol.K

 Total job time:  899.37s(wall), 12309.63s(cpu)
        *  Thank you very much for using Q-Chem.  Have a nice day.  *
