 Q-Chem 5.2 (devel), Q-Chem, Inc., Pleasanton, CA (2019)
 Q-Chem 5.2.2 for Intel X86 EM64T Linux

User input:
--------------------------------------------------------------
$molecule
0 1
C      1.4237947151   -3.0608241526   -0.2538440369
C     -0.0027212903   -2.4796461989   -0.2795059386
C     -0.9525401856   -3.3676756901   -1.0991532318
C     -0.9415390712   -4.8198325502   -0.5924785153
C      0.4808305774   -5.4013926753   -0.5597540856
C      1.4296170591   -4.5107560466    0.2577480112
H     -1.9677091925   -2.9527234723   -1.0611279538
H     -0.3710480205   -2.4124550934    0.7501700820
H      1.8391537835   -3.0285456672   -1.2733804462
H      2.0609730780   -2.4249568761    0.3722142672
H     -1.3692833786   -4.8499379129    0.4207100227
H     -1.5935075460   -5.4372365188   -1.2237755725
H      0.4629390155   -6.4180942766   -0.1460956749
H      0.8612728327   -5.4887444164   -1.5891629525
H      1.1203820328   -4.5225023846    1.3136256342
H      2.4509224154   -4.9118020474    0.2288679143
H     -0.6393854958   -3.3513633735   -2.1560935585
N     -0.0187467309   -1.1070441237   -0.7901319655
H      0.0274523886   -0.9664323311   -1.7925891196
C      0.0000000000    0.0000000000    0.0000000000
H      0.0058779299    0.9377871154   -0.5885222185
O      0.0000000000   -0.0000000000    1.2239198468
$end

$rem
JOBTYPE  SP
METHOD  B3LYP
BASIS  6-31+G(D)
SYMMETRY  FALSE
SYM_IGNORE  TRUE
MEM_TOTAL  8000
MEM_STATIC  2000
MAX_SUB_FILE_NUM  16000
BASIS_LIN_DEP_THRESH  6
THRESH  14
SCF_CONVERGENCE  9
GEN_SCFMAN  TRUE
SCF_GUESS  SAD
FD_MAT_VEC_PROD  FALSE
XC_GRID  000099000590
NL_GRID  1
MAX_SCF_CYCLES  200
CHELPG          true
CM5             true
$end
--------------------------------------------------------------

             Standard Nuclear Orientation (Angstroms)
    I     Atom           X                Y                Z
 ----------------------------------------------------------------
    1      C       1.4237947151    -3.0608241526    -0.2538440369
    2      C      -0.0027212903    -2.4796461989    -0.2795059386
    3      C      -0.9525401856    -3.3676756901    -1.0991532318
    4      C      -0.9415390712    -4.8198325502    -0.5924785153
    5      C       0.4808305774    -5.4013926753    -0.5597540856
    6      C       1.4296170591    -4.5107560466     0.2577480112
    7      H      -1.9677091925    -2.9527234723    -1.0611279538
    8      H      -0.3710480205    -2.4124550934     0.7501700820
    9      H       1.8391537835    -3.0285456672    -1.2733804462
   10      H       2.0609730780    -2.4249568761     0.3722142672
   11      H      -1.3692833786    -4.8499379129     0.4207100227
   12      H      -1.5935075460    -5.4372365188    -1.2237755725
   13      H       0.4629390155    -6.4180942766    -0.1460956749
   14      H       0.8612728327    -5.4887444164    -1.5891629525
   15      H       1.1203820328    -4.5225023846     1.3136256342
   16      H       2.4509224154    -4.9118020474     0.2288679143
   17      H      -0.6393854958    -3.3513633735    -2.1560935585
   18      N      -0.0187467309    -1.1070441237    -0.7901319655
   19      H       0.0274523886    -0.9664323311    -1.7925891196
   20      C       0.0000000000     0.0000000000     0.0000000000
   21      H       0.0058779299     0.9377871154    -0.5885222185
   22      O       0.0000000000     0.0000000000     1.2239198468
 ----------------------------------------------------------------

   16    -404.5870614998      1.38e-10  Convergence criterion met
 Total energy in the final basis set =     -404.5870614998

                    Orbital Energies (a.u.)
 --------------------------------------------------------------

 Alpha MOs
 -- Occupied --
-19.1270 -14.3742 -10.2913 -10.2329 -10.1973 -10.1935 -10.1909 -10.1906
-10.1904  -1.0381  -0.9351  -0.8346  -0.7532  -0.7506  -0.6436  -0.6239
 -0.5975  -0.5733  -0.5327  -0.4888  -0.4680  -0.4529  -0.4474  -0.4220
 -0.4157  -0.4039  -0.3898  -0.3782  -0.3579  -0.3550  -0.3335  -0.3240
 -0.3184  -0.2636  -0.2593

         Ground-State ChElPG Net Atomic Charges

     Atom                 Charge (a.u.)
  ----------------------------------------
      1 C                    -0.232758
      2 C                     0.689501
      3 C                    -0.218058
      4 C                     0.074709
      5 C                    -0.024562
      6 C                     0.067465
      7 H                     0.026269
      8 H                    -0.025413
      9 H                     0.025850
     10 H                     0.059496
     11 H                    -0.020048
     12 H                    -0.001035
     13 H                    -0.004832
     14 H                     0.001634
     15 H                    -0.020185
     16 H                     0.002192
     17 H                     0.037415
     18 N                    -0.751607
     19 H                     0.318816
     20 C                     0.556896
     21 H                     0.008410
     22 O                    -0.570155
  ----------------------------------------
  Sum of atomic charges =     0.000000

                    Cartesian Multipole Moments
 -----------------------------------------------------------------
    Charge (ESU x 10^10)
                 0.0000
    Dipole Moment (Debye)
         X       0.1023      Y      -2.0398      Z      -3.6264
       Tot       4.1620
    Quadrupole Moments (Debye-Ang)
        XX     -56.9129     XY      -0.0722     YY     -49.4422
        XZ      -0.1122     YZ       0.0511     ZZ     -57.8585

 Total job time:  233.62s(wall), 1631.18s(cpu)
        *  Thank you very much for using Q-Chem.  Have a nice day.  *
