 Q-Chem 5.2 (devel), Q-Chem, Inc., Pleasanton, CA (2019)
 Q-Chem 5.2.2 for Intel X86 EM64T Linux

User input:
--------------------------------------------------------------
$molecule
0 1
C         0.4612418145   -1.2420508655    0.4160834249
C        -0.3176352256    0.0339416802    0.0478210584
C         0.5212480941    1.2960829808    0.3140850523
C         1.8786388613    1.2330233750   -0.4054423318
C         2.6561003230   -0.0411111453   -0.0398878193
C         1.8180135321   -1.3015031773   -0.3048229442
H        -0.0438417398    2.1810393219   -0.0003107249
H        -0.5799552283   -0.0042372449   -1.0144361342
H         0.6254389968   -1.2581548711    1.5046036210
H        -0.1470338295   -2.1205738758    0.1727325248
H         1.7108734973    1.2561227760   -1.4916154042
H         2.4691306411    2.1247003402   -0.1633160255
H         3.5956932235   -0.0856898414   -0.6036839828
H         2.9312876475   -0.0054621016    1.0245042060
H         1.6466794901   -1.4025956658   -1.3859770802
H         2.3659502825   -2.1983866104    0.0078815647
H         0.6887229560    1.3923277182    1.3981995017
N        -1.5973339814    0.0971451100    0.7554474478
H        -1.5856923318    0.1923106701    1.7627868945
C        -2.8130026809    0.0202304641    0.1491508509
H        -3.6473411342    0.0872214043    0.8731781509
O        -3.0035129044   -0.1046112663   -1.0534731298
$end

$rem
JOBTYPE  SP
METHOD  B3LYP
BASIS  6-31+G(D,P)
SYMMETRY  FALSE
SYM_IGNORE  FALSE
MEM_TOTAL  8000
MEM_STATIC  2000
MAX_SUB_FILE_NUM  16000
BASIS_LIN_DEP_THRESH  6
THRESH  14
SCF_CONVERGENCE  8
GEN_SCFMAN  TRUE
SCF_GUESS  SAD
FD_MAT_VEC_PROD  FALSE
XC_GRID  000099000590
NL_GRID  1
MAX_SCF_CYCLES  200
ESP_GRID -1
IANLTY   200
MAKE_CUBE_FILES TRUE
$end

$plots
plot the ESP
100  -6.0  6.0
100  -4.0  4.0
100  -4.0  4.0
0 0 0 0
0
$end
--------------------------------------------------------------

             Standard Nuclear Orientation (Angstroms)
    I     Atom           X                Y                Z
 ----------------------------------------------------------------
    1      C       0.4604230502    -1.2418089377     0.4165732629
    2      C      -0.3183279774     0.0340724541     0.0476598557
    3      C       0.5205815854     1.2962791370     0.3135309452
    4      C       1.8780812125     1.2328481010    -0.4057583786
    5      C       2.6554171840    -0.0411763133    -0.0395538170
    6      C       1.8173040367    -1.3016332190    -0.3040966393
    7      H      -0.0444116490     2.1811352431    -0.0013202377
    8      H      -0.5804842864    -0.0045332365    -1.0146223233
    9      H       0.6244495265    -1.2574700092     1.5051256580
   10      H      -0.1478618081    -2.1204002275     0.1734920505
   11      H       1.7104865641     1.2555057329    -1.4919671101
   12      H       2.4685831046     2.1245937906    -0.1639099939
   13      H       3.5950956446    -0.0860393958    -0.6031848021
   14      H       2.9304403457    -0.0051003083     1.0248662522
   15      H       1.6461332560    -1.4031651914    -1.3852354525
   16      H       2.3651438110    -2.1984161976     0.0090655484
   17      H       0.6878924638     1.3929647943     1.3976314811
   18      N      -1.5981337296     0.0976382066     0.7550602500
   19      H      -1.5866441404     0.1932211855     1.7623619209
   20      C      -2.8137119454     0.0205371746     0.1486059277
   21      H      -3.6481597567     0.0878733490     0.8724751574
   22      O      -3.0040412306    -0.1047934194    -1.0539958548
 ----------------------------------------------------------------

   13    -404.6063729708      9.32e-09  Convergence criterion met
 Total energy in the final basis set =     -404.6063729708

                    Orbital Energies (a.u.)
 --------------------------------------------------------------

 Alpha MOs
 -- Occupied --
-19.1273 -14.3739 -10.2917 -10.2323 -10.1947 -10.1934 -10.1922 -10.1916
-10.1905  -1.0382  -0.9351  -0.8347  -0.7529  -0.7511  -0.6436  -0.6226
 -0.5984  -0.5730  -0.5313  -0.4887  -0.4667  -0.4521  -0.4463  -0.4226
 -0.4165  -0.4038  -0.3894  -0.3787  -0.3564  -0.3547  -0.3329  -0.3233
 -0.3189  -0.2621  -0.2609

          Ground-State Mulliken Net Atomic Charges

     Atom                 Charge (a.u.)
  ----------------------------------------
      1 C                    -0.156928
      2 C                    -0.412508
      3 C                    -0.184298
      4 C                    -0.264084
      5 C                    -0.286329
      6 C                    -0.264263
      7 H                     0.149907
      8 H                     0.181728
      9 H                     0.132741
     10 H                     0.150413
     11 H                     0.143382
     12 H                     0.137143
     13 H                     0.136233
     14 H                     0.136111
     15 H                     0.143542
     16 H                     0.137168
     17 H                     0.131956
     18 N                    -0.282200
     19 H                     0.291074
     20 C                     0.370912
     21 H                     0.097392
     22 O                    -0.489090
  ----------------------------------------
  Sum of atomic charges =     0.000000

                    Cartesian Multipole Moments
 -----------------------------------------------------------------
    Charge (ESU x 10^10)
                 0.0000
    Dipole Moment (Debye)
         X       2.5699      Y       0.3414      Z       3.2444
       Tot       4.1530
    Quadrupole Moments (Debye-Ang)
        XX     -63.9983     XY      -0.9841     YY     -56.8271
        XZ     -10.0428     YZ       0.0054     ZZ     -56.6809

 Total job time:  145.18s(wall), 1143.23s(cpu)
        *  Thank you very much for using Q-Chem.  Have a nice day.  *
