 Q-Chem 5.2 (devel), Q-Chem, Inc., Pleasanton, CA (2019)
 Q-Chem 5.2.2 for Intel X86 EM64T Linux

User input:
--------------------------------------------------------------
$molecule
0 1
C      1.9839655798    2.8343873569   -0.6530035790
C      2.0889665948    1.3399289492   -0.2973932582
C      3.4017166944    0.7321441035   -0.8222227424
C      4.6254659785    1.5200300416   -0.3255741318
C      4.5210827926    3.0122209378   -0.6783481608
C      3.2094896156    3.6188525050   -0.1554554411
H      3.4653882129   -0.3186255299   -0.5134835234
H      2.0538505535    1.2303619181    0.7916336585
H      1.9041773336    2.9373830819   -1.7471760654
H      1.0604862058    3.2447823031   -0.2264495779
H      4.7056113531    1.4098609561    0.7662015896
H      5.5416784391    1.0893334561   -0.7496610014
H      5.3807748665    3.5587419877   -0.2692766409
H      4.5659637339    3.1311627355   -1.7719372538
H      3.2192612515    3.6121018079    0.9447339030
H      3.1260878858    4.6703627905   -0.4590864625
H      3.3863457527    0.7409636912   -1.9242196110
N      0.9315723625    0.5939302253   -0.7942938700
H      0.8024957372    0.5217251348   -1.7968919912
C      0.0000000000    0.0000000000    0.0000000000
H     -0.7899738588   -0.5065817117   -0.5873052394
O     -0.0000000000    0.0000000000    1.2238135054
$end

$rem
JOBTYPE  OPT
METHOD  B3LYP
BASIS  6-31+G(D)
SYMMETRY  FALSE
SYM_IGNORE  TRUE
MEM_TOTAL  8000
MEM_STATIC  2000
MAX_SUB_FILE_NUM  16000
BASIS_LIN_DEP_THRESH  6
THRESH  14
SCF_CONVERGENCE  9
GEN_SCFMAN  TRUE
SCF_GUESS  SAD
FD_MAT_VEC_PROD  FALSE
XC_GRID  000099000590
NL_GRID  1
MAX_SCF_CYCLES  200
GEOM_OPT_TOL_GRADIENT  100
GEOM_OPT_TOL_DISPLACEMENT  100
GEOM_OPT_TOL_ENERGY  10
SOLVENT_METHOD       PCM
$end

$PCM
THEORY                     CPCM
METHOD                     SWIG
SOLVER                     INVERSION
HPOINTS                    302
HEAVYPOINTS                302
$END

$SOLVENT
DIELECTRIC                 6.97
$END

$multipole_field
Z   0.003890
$end

--------------------------------------------------------------

   15    -404.6076858938      5.60e-10  Convergence criterion met
 Total energy in the final basis set =     -404.6076858938
   13    -404.6083604162      3.95e-10  Convergence criterion met
 Total energy in the final basis set =     -404.6083604162
   13    -404.6084464074      4.00e-10  Convergence criterion met
 Total energy in the final basis set =     -404.6084464074
   13    -404.6084299720      4.05e-10  Convergence criterion met
 Total energy in the final basis set =     -404.6084299720
   13    -404.6084499618      4.02e-10  Convergence criterion met
 Total energy in the final basis set =     -404.6084499618
   13    -404.6084500241      4.02e-10  Convergence criterion met
 Total energy in the final basis set =     -404.6084500241
 Final energy is   -404.608450024130
 **  OPTIMIZATION CONVERGED  **
 Total job time:  495.27s(wall), 6926.08s(cpu)
        *  Thank you very much for using Q-Chem.  Have a nice day.  *

User input: 2 of 2

                  Welcome to Q-Chem
     A Quantum Leap Into The Future Of Chemistry

 Q-Chem 5.2 (devel), Q-Chem, Inc., Pleasanton, CA (2019)

 Yihan Shao,  Zhengting Gan,  E. Epifanovsky,  A. T. B. Gilbert,  M. Wormit,
 J. Kussmann,  A. W. Lange,  A. Behn,  Jia Deng,  Xintian Feng,  D. Ghosh,
 M. Goldey,  P. R. Horn,  L. D. Jacobson,  I. Kaliman,  T. Kus,  A. Landau,
 Jie Liu,  E. I. Proynov,  R. M. Richard,  R. P. Steele,  E. J. Sundstrom,
 H. L. Woodcock III,  P. M. Zimmerman,  D. Zuev,  B. Alam,  B. Albrecht,
 E. Alguire,  S. A. Baeppler,  D. Barton,  Z. Benda,  Y. A. Bernard,
 E. J. Berquist,  K. B. Bravaya,  H. Burton,  K. Carter-Fenk,  D. Casanova,
 Chun-Min Chang,  Yunqing Chen,  A. Chien,  K. D. Closser,  M. P. Coons,
 S. Coriani,  S. Dasgupta,  A. L. Dempwolff,  M. Diedenhofen,  Hainam Do,
 R. G. Edgar,  Po-Tung Fang,  S. Faraji,  S. Fatehi,  Qingguo Feng,
 J. Fosso-Tande,  J. Gayvert,  Qinghui Ge,  A. Ghysels,  G. Gidofalvi,
 J. Gomes,  J. Gonthier,  A. Gunina,  D. Hait,  M. W. D. Hanson-Heine,
 P. H. P. Harbach,  A. W. Hauser,  M. F. Herbst,  J. E. Herr,
 E. G. Hohenstein,  Z. C. Holden,  Kerwin Hui,  B. C. Huynh,  T.-C. Jagau,
 Hyunjun Ji,  B. Kaduk,  K. Khistyaev,  Jaehoon Kim,  P. Klunzinger,  K. Koh,
 D. Kosenkov,  L. Koulias,  T. Kowalczyk,  C. M. Krauter,  A. Kunitsa,
 Ka Un Lao,  A. Laurent,  K. V. Lawler,  Joonho Lee,  D. Lefrancois,
 S. Lehtola,  D. S. Levine,  Yi-Pei Li,  You-Sheng Lin,  Fenglai Liu,
 Kuan-Yu Liu,  E. Livshits,  M. Loipersberger,  A. Luenser,  P. Manohar,
 E. Mansoor,  S. F. Manzer,  Shan-Ping Mao,  Yuezhi Mao,  N. Mardirossian,
 A. V. Marenich,  T. Markovich,  L. A. Martinez-Martinez,  S. A. Maurer,
 N. J. Mayhall,  S. C. McKenzie,  J.-M. Mewes,  P. Morgante,  A. F. Morrison,
 J. W. Mullinax,  K. Nanda,  T. S. Nguyen-Beck,  R. Olivares-Amaya,
 J. A. Parkhill,  S. K. Paul,  F. Pavosevic,  Zheng Pei,  T. M. Perrine,
 F. Plasser,  P. Pokhilko,  S. Prager,  A. Prociuk,  E. Ramos,  B. Rana,
 D. R. Rehn,  F. Rob,  M. Scheurer,  M. Schneider,  N. Sergueev,
 S. M. Sharada,  S. Sharma,  D. W. Small,  T. Stauch,  C. J. Stein,
 T. Stein,  Yu-Chuan Su,  S. P. Veccham,  Zhen Tao,  A. J. W. Thom,
 A. Tkatchenko,  T. Tsuchimochi,  N. M. Tubman,  L. Vogt,  M. L. Vidal,
 O. Vydrov,  M. A. Watson,  J. Wenzel,  M. de Wergifosse,  T. A. Wesolowski,
 A. White,  J. Witte,  A. Yamada,  Jun Yang,  K. Yao,  S. Yeganeh,
 S. R. Yost,  Zhi-Qiang You,  A. Zech,  Igor Ying Zhang,  Xing Zhang,
 Yan Zhao,  Ying Zhu,  B. R. Brooks,  G. K. L. Chan,  C. J. Cramer,
 M. S. Gordon,  W. J. Hehre,  A. Klamt,  M. W. Schmidt,  C. D. Sherrill,
 D. G. Truhlar,  A. Aspuru-Guzik,  R. Baer,  A. T. Bell,  N. A. Besley,
 Jeng-Da Chai,  A. E. DePrince, III,  R. A. DiStasio Jr.,  A. Dreuw,
 B. D. Dunietz,  T. R. Furlani,  Chao-Ping Hsu,  Yousung Jung,  Jing Kong,
 D. S. Lambrecht,  WanZhen Liang,  C. Ochsenfeld,  V. A. Rassolov,
 L. V. Slipchenko,  J. E. Subotnik,  T. Van Voorhis,  J. M. Herbert,
 A. I. Krylov,  P. M. W. Gill,  M. Head-Gordon

 Contributors to earlier versions of Q-Chem not listed above:
 R. D. Adamson,  B. Austin,  J. Baker,  G. J. O. Beran,  K. Brandhorst,
 S. T. Brown,  E. F. C. Byrd,  A. K. Chakraborty,  C.-L. Cheng,
 Siu Hung Chien,  D. M. Chipman,  D. L. Crittenden,  H. Dachsel,
 R. J. Doerksen,  A. D. Dutoi,  L. Fusti-Molnar,  W. A. Goddard III,
 A. Golubeva-Zadorozhnaya,  S. R. Gwaltney,  G. Hawkins,  A. Heyden,
 S. Hirata,  G. Kedziora,  F. J. Keil,  C. Kelley,  Jihan Kim,  R. A. King,
 R. Z. Khaliullin,  P. P. Korambath,  W. Kurlancheek,  A. M. Lee,  M. S. Lee,
 S. V. Levchenko,  Ching Yeh Lin,  D. Liotard,  R. C. Lochan,  I. Lotan,
 P. E. Maslen,  N. Nair,  D. P. O'Neill,  D. Neuhauser,  E. Neuscamman,
 C. M. Oana,  R. Olson,  B. Peters,  R. Peverati,  P. A. Pieniazek,
 Y. M. Rhee,  J. Ritchie,  M. A. Rohrdanz,  E. Rosta,  N. J. Russ,
 H. F. Schaefer III,  N. E. Schultz,  N. Shenvi,  A. C. Simmonett,  A. Sodt,
 D. Stuck,  K. S. Thanthiriwatte,  V. Vanovschi,  Tao Wang,  A. Warshel,
 C. F. Williams,  Q. Wu,  X. Xu,  W. Zhang

 Please cite Q-Chem as follows:
 Y. Shao et al., Mol. Phys. 113, 184-215 (2015)
 DOI: 10.1080/00268976.2014.952696

 Q-Chem 5.2.2 for Intel X86 EM64T Linux

 Parts of Q-Chem use Armadillo 9.800.1 (Horizon Scraper).
 http://arma.sourceforge.net/

 Q-Chem begins on Tue Jul 27 17:32:21 2021

Host: node028
0

     Scratch files written to /home/ymao90/scratch/CCX_CO_-20_MeTHF20210727172405//
The previous job contains 0 fragments, simply inherited here
Symmetry turned off for PCM/SM12/SMD calculation

Checking the input file for inconsistencies... 	...done.

--------------------------------------------------------------
User input:
--------------------------------------------------------------

$molecule
read
$end

$rem
JOBTYPE  FREQ
METHOD  B3LYP
BASIS  6-31+G(D)
SYMMETRY  FALSE
SYM_IGNORE  TRUE
MEM_TOTAL  8000
MEM_STATIC  2000
MAX_SUB_FILE_NUM  16000
BASIS_LIN_DEP_THRESH  6
THRESH  14
SCF_CONVERGENCE  9
GEN_SCFMAN  TRUE
SCF_GUESS  READ
FD_MAT_VEC_PROD  FALSE
XC_GRID  000099000590
IDERIV   1
NL_GRID  1
MAX_SCF_CYCLES  200
ISOTOPES TRUE
SOLVENT_METHOD       PCM
$end

$PCM
THEORY                     CPCM
METHOD                     SWIG
SOLVER                     INVERSION
HPOINTS                    302
HEAVYPOINTS                302
$END

$SOLVENT
DIELECTRIC                 6.97
$END

$isotopes
1 0
1
 21 2.0141018
$end

$multipole_field
Z   0.003890
$end
--------------------------------------------------------------

   13    -404.6084500241      4.02e-10  Convergence criterion met
 Total energy in the final basis set =     -404.6084500241
 Total energy in the final basis set =     -404.6084499495
   13    -404.6084495973      4.02e-10  Convergence criterion met
 Total energy in the final basis set =     -404.6084495973
   13    -404.6084499249      4.02e-10  Convergence criterion met
 Total energy in the final basis set =     -404.6084499249
   13    -404.6084498681      4.02e-10  Convergence criterion met
 Total energy in the final basis set =     -404.6084498681
   13    -404.6084499581      4.02e-10  Convergence criterion met
 Total energy in the final basis set =     -404.6084499581
   13    -404.6084499218      4.02e-10  Convergence criterion met
 Total energy in the final basis set =     -404.6084499218
   13    -404.6084489280      4.03e-10  Convergence criterion met
 Total energy in the final basis set =     -404.6084489280
   13    -404.6084486267      4.01e-10  Convergence criterion met
 Total energy in the final basis set =     -404.6084486267

                    Orbital Energies (a.u.)
 --------------------------------------------------------------

 Alpha MOs
 -- Occupied --
-19.1353 -14.3702 -10.2931 -10.2246 -10.1802 -10.1796 -10.1794 -10.1792
-10.1749  -1.0383  -0.9318  -0.8229  -0.7411  -0.7393  -0.6352  -0.6094
 -0.5902  -0.5620  -0.5248  -0.4831  -0.4594  -0.4406  -0.4361  -0.4185
 -0.4168  -0.3938  -0.3769  -0.3724  -0.3451  -0.3418  -0.3200  -0.3104
 -0.3079  -0.2714  -0.2598

          Ground-State Mulliken Net Atomic Charges

     Atom                 Charge (a.u.)
  ----------------------------------------
      1 C                    -0.257852
      2 C                    -0.443518
      3 C                    -0.277142
      4 C                    -0.459684
      5 C                    -0.365425
      6 C                    -0.464235
      7 H                     0.207504
      8 H                     0.213201
      9 H                     0.230723
     10 H                     0.204381
     11 H                     0.187945
     12 H                     0.210391
     13 H                     0.192817
     14 H                     0.221935
     15 H                     0.187410
     16 H                     0.207821
     17 H                     0.231106
     18 N                    -0.381007
     19 H                     0.459897
     20 C                     0.340627
     21 H                     0.189384
     22 O                    -0.636279
  ----------------------------------------
  Sum of atomic charges =     0.000000

                    Cartesian Multipole Moments
 -----------------------------------------------------------------
    Charge (ESU x 10^10)
                 0.0000
    Dipole Moment (Debye)
         X       2.2378      Y       1.4364      Z      -6.3460
       Tot       6.8806
    Quadrupole Moments (Debye-Ang)
        XX     -50.4025     XY       4.1764     YY     -54.2316
        XZ      -3.7921     YZ      -2.5612     ZZ     -56.9297

             Standard Nuclear Orientation (Angstroms)
    I     Atom           X                Y                Z
 ----------------------------------------------------------------
    1      C       1.9831889832     2.8318677114    -0.6552012232
    2      C       2.0940752871     1.3406118575    -0.2892203879
    3      C       3.4013283146     0.7317285022    -0.8259025135
    4      C       4.6247379839     1.5190121362    -0.3270786889
    5      C       4.5200381724     3.0120770691    -0.6768314518
    6      C       3.2070464554     3.6180330374    -0.1558668472
    7      H       3.4680885603    -0.3208444545    -0.5221981652
    8      H       2.0742600924     1.2390437487     0.8012639664
    9      H       1.9080626548     2.9249603346    -1.7481156565
   10      H       1.0579407732     3.2450331819    -0.2331578931
   11      H       4.7052255906     1.4059375011     0.7662160161
   12      H       5.5386091356     1.0900955527    -0.7570801450
   13      H       5.3792772883     3.5585576946    -0.2651717546
   14      H       4.5647557579     3.1314266070    -1.7686098644
   15      H       3.2151168814     3.6117495226     0.9462410418
   16      H       3.1222170368     4.6675637058    -0.4653112932
   17      H       3.3779950706     0.7484484599    -1.9250951086
   18      N       0.9323072682     0.5926250144    -0.7801425699
   19      H       0.8087542557     0.5214818360    -1.7862880007
   20      C       0.0019513436     0.0047769453    -0.0110440868
   21      H      -0.7824731150    -0.4971818562    -0.5994059806
   22      O      -0.0180967061    -0.0039373671     1.2326047130
 ----------------------------------------------------------------

 Frequency:        28.94                 102.89                 204.04
 Force Cnst:      0.0024                 0.0222                 0.0575
 Red. Mass:       4.8251                 3.5669                 2.3458
 IR Intens:       13.051                  8.198                 48.435
 Frequency:       215.18                 227.20                 333.37
 Force Cnst:      0.0951                 0.0543                 0.1241
 Red. Mass:       3.4875                 1.7866                 1.8948
 IR Intens:       15.339                  0.111                  0.242
 Frequency:       397.51                 413.19                 451.78
 Force Cnst:      0.3399                 0.3581                 0.2707
 Red. Mass:       3.6514                 3.5605                 2.2511
 IR Intens:       11.922                 25.868                  0.749
 Frequency:       466.42                 532.20                 627.65
 Force Cnst:      0.4749                 0.2689                 0.2653
 Red. Mass:       3.7052                 1.6113                 1.1430
 IR Intens:       12.174                  2.170                102.860
 Frequency:       744.47                 799.65                 821.57
 Force Cnst:      1.3733                 0.5433                 0.9567
 Red. Mass:       4.2054                 1.4420                 2.4056
 IR Intens:        6.243                  0.125                  1.038
 Frequency:       848.74                 902.37                 917.23
 Force Cnst:      0.8522                 0.8886                 0.9733
 Red. Mass:       2.0078                 1.8522                 1.9635
 IR Intens:        2.448                 15.453                  1.230
 Frequency:       935.19                 964.83                1029.45
 Force Cnst:      0.7722                 1.2863                 0.9913
 Red. Mass:       1.4987                 2.3453                 1.5876
 IR Intens:        0.574                  5.832                  0.038
 Frequency:      1035.88                1064.95                1072.72
 Force Cnst:      1.1180                 0.9277                 2.5397
 Red. Mass:       1.7684                 1.3883                 3.7460
 IR Intens:        2.201                  2.076                 23.003
 Frequency:      1090.50                1103.18                1174.97
 Force Cnst:      0.8164                 1.7566                 1.8998
 Red. Mass:       1.1653                 2.4497                 2.3356
 IR Intens:        0.002                  1.891                  6.467
 Frequency:      1210.56                1246.98                1275.39
 Force Cnst:      1.2719                 1.5714                 1.2548
 Red. Mass:       1.4731                 1.7152                 1.3093
 IR Intens:        0.755                 45.548                 13.109
 Frequency:      1290.23                1299.04                1342.60
 Force Cnst:      1.2464                 1.4184                 1.3625
 Red. Mass:       1.2708                 1.4266                 1.2829
 IR Intens:        1.983                 11.229                  2.112
 Frequency:      1345.07                1373.77                1384.04
 Force Cnst:      1.3139                 1.5346                 1.5267
 Red. Mass:       1.2326                 1.3801                 1.3527
 IR Intens:       13.659                  1.656                  0.674
 Frequency:      1386.30                1386.78                1406.12
 Force Cnst:      1.6889                 1.7047                 1.7222
 Red. Mass:       1.4916                 1.5045                 1.4784
 IR Intens:       12.681                  1.096                  1.051
 Frequency:      1424.47                1495.20                1497.84
 Force Cnst:      1.5081                 1.4327                 1.4362
 Red. Mass:       1.2615                 1.0877                 1.0865
 IR Intens:       80.768                  0.209                  6.700
 Frequency:      1500.41                1502.08                1514.56
 Force Cnst:      1.4575                 1.4534                 1.4868
 Red. Mass:       1.0989                 1.0933                 1.1001
 IR Intens:        7.164                 10.693                  0.585
 Frequency:      1567.76                1685.24                2995.98
 Force Cnst:      2.7178                 8.8290                 5.6587
 Red. Mass:       1.8768                 5.2764                 1.0700
 IR Intens:      294.389                751.365                 29.715
 Frequency:      2998.35                3028.30                3029.82
 Force Cnst:      5.6717                 5.7312                 5.7369
 Red. Mass:       1.0708                 1.0607                 1.0607
 IR Intens:      121.595                 51.701                 26.568
 Frequency:      3032.83                3043.17                3063.11
 Force Cnst:      5.7577                 5.9315                 6.0698
 Red. Mass:       1.0624                 1.0871                 1.0980
 IR Intens:       34.337                 99.146                 94.109
 Frequency:      3065.37                3066.99                3070.80
 Force Cnst:      6.0464                 6.0580                 6.0915
 Red. Mass:       1.0922                 1.0931                 1.0964
 IR Intens:      103.570                 32.813                 99.519
 Frequency:      3072.70                3089.21                3570.69
 Force Cnst:      6.1435                 6.1428                 8.1041
 Red. Mass:       1.1044                 1.0925                 1.0788
 IR Intens:       31.501                 98.184                 80.542
 Frequency:        28.94                 102.19                 183.03
 Force Cnst:      0.0024                 0.0221                 0.0564
 Red. Mass:       4.8263                 3.5864                 2.8587
 IR Intens:       13.065                  7.984                 42.162
 Frequency:       214.36                 227.20                 333.18
 Force Cnst:      0.0992                 0.0543                 0.1245
 Red. Mass:       3.6629                 1.7863                 1.9041
 IR Intens:       11.814                  0.099                  0.216
 Frequency:       392.54                 405.51                 451.51
 Force Cnst:      0.3379                 0.3803                 0.2747
 Red. Mass:       3.7220                 3.9255                 2.2874
 IR Intens:       11.294                 17.974                  0.779
 Frequency:       460.75                 529.68                 621.18
 Force Cnst:      0.4343                 0.2662                 0.2573
 Red. Mass:       3.4724                 1.6106                 1.1316
 IR Intens:        3.472                  1.774                119.913
 Frequency:       735.12                 799.65                 819.54
 Force Cnst:      1.3275                 0.5432                 0.9434
 Red. Mass:       4.1692                 1.4419                 2.3840
 IR Intens:        5.977                  0.123                  0.775
 Frequency:       847.77                 864.81                 902.41
 Force Cnst:      0.8638                 1.7792                 0.8858
 Red. Mass:       2.0400                 4.0378                 1.8462
 IR Intens:        2.910                  0.964                 15.263
 Frequency:       915.11                 935.29                 943.08
 Force Cnst:      1.0050                 0.7737                 1.1925
 Red. Mass:       2.0369                 1.5012                 2.2757
 IR Intens:        1.870                  0.658                  5.880
 Frequency:      1022.61                1036.49                1064.06
 Force Cnst:      1.4118                 1.1476                 0.9414
 Red. Mass:       2.2913                 1.8131                 1.4112
 IR Intens:        7.542                  1.487                  1.849
 Frequency:      1090.44                1102.69                1120.65
 Force Cnst:      0.8098                 1.7870                 2.4732
 Red. Mass:       1.1559                 2.4944                 3.3425
 IR Intens:        0.001                  1.667                 27.017
 Frequency:      1178.79                1210.06                1247.99
 Force Cnst:      2.0705                 1.2715                 1.8412
 Red. Mass:       2.5290                 1.4738                 2.0064
 IR Intens:       17.574                  0.617                 37.034
 Frequency:      1274.72                1290.23                1297.52
 Force Cnst:      1.2478                 1.2465                 1.3971
 Red. Mass:       1.3034                 1.2709                 1.4085
 IR Intens:       10.867                  1.952                  6.715
 Frequency:      1342.34                1344.03                1373.73
 Force Cnst:      1.3468                 1.3079                 1.5344
 Red. Mass:       1.2686                 1.2288                 1.3800
 IR Intens:        3.873                  9.929                  1.589
 Frequency:      1383.97                1386.32                1386.78
 Force Cnst:      1.5262                 1.6879                 1.7039
 Red. Mass:       1.3524                 1.4907                 1.5038
 IR Intens:        0.597                 11.713                  1.090
 Frequency:      1405.72                1495.20                1497.84
 Force Cnst:      1.7087                 1.4327                 1.4362
 Red. Mass:       1.4676                 1.0877                 1.0865
 IR Intens:        0.192                  0.212                  6.764
 Frequency:      1500.41                1502.08                1514.53
 Force Cnst:      1.4575                 1.4534                 1.4869
 Red. Mass:       1.0989                 1.0933                 1.1002
 IR Intens:        7.140                 10.476                  0.681
 Frequency:      1560.89                1661.56                2249.47
 Force Cnst:      2.5198                14.2397                 7.1475
 Red. Mass:       1.7554                 8.7542                 2.3974
 IR Intens:      232.422                872.711                 81.368
 Frequency:      2995.98                2998.36                3028.30
 Force Cnst:      5.6587                 5.6717                 5.7312
 Red. Mass:       1.0700                 1.0708                 1.0607
 IR Intens:       29.684                120.988                 51.548
 Frequency:      3029.82                3032.84                3063.10
 Force Cnst:      5.7369                 5.7574                 6.0698
 Red. Mass:       1.0607                 1.0624                 1.0980
 IR Intens:       26.580                 38.558                 98.075
 Frequency:      3065.37                3066.97                3070.80
 Force Cnst:      6.0463                 6.0579                 6.0914
 Red. Mass:       1.0921                 1.0931                 1.0964
 IR Intens:      103.579                 31.919                 98.078
 Frequency:      3072.70                3089.17                3570.64
 Force Cnst:      6.1435                 6.1428                 8.1037
 Red. Mass:       1.1044                 1.0925                 1.0788
 IR Intens:       31.507                101.734                 81.233

 STANDARD THERMODYNAMIC QUANTITIES AT   298.18 K  AND     1.00 ATM

   This Molecule has  0 Imaginary Frequencies
   Zero point vibrational energy:      121.997 kcal/mol

   Atom    1 Element C  Has Mass   12.00000
   Atom    2 Element C  Has Mass   12.00000
   Atom    3 Element C  Has Mass   12.00000
   Atom    4 Element C  Has Mass   12.00000
   Atom    5 Element C  Has Mass   12.00000
   Atom    6 Element C  Has Mass   12.00000
   Atom    7 Element H  Has Mass    1.00783
   Atom    8 Element H  Has Mass    1.00783
   Atom    9 Element H  Has Mass    1.00783
   Atom   10 Element H  Has Mass    1.00783
   Atom   11 Element H  Has Mass    1.00783
   Atom   12 Element H  Has Mass    1.00783
   Atom   13 Element H  Has Mass    1.00783
   Atom   14 Element H  Has Mass    1.00783
   Atom   15 Element H  Has Mass    1.00783
   Atom   16 Element H  Has Mass    1.00783
   Atom   17 Element H  Has Mass    1.00783
   Atom   18 Element N  Has Mass   14.00307
   Atom   19 Element H  Has Mass    1.00783
   Atom   20 Element C  Has Mass   12.00000
   Atom   21 Element H  Has Mass    2.01410
   Atom   22 Element O  Has Mass   15.99491
   Molecular Mass:   128.106042 amu
   Principal axes and moments of inertia in amu*Bohr^2:
                             1           2           3
    Eigenvalues --      540.65130  2023.06297  2221.96675
          X               0.82484    -0.52819     0.20161
          Y               0.53929     0.84212    -0.00011
          Z              -0.16973     0.10882     0.97947
   Rotational Symmetry Number is   1
   The Molecule is an Asymmetric Top
   Translational Enthalpy:        0.889 kcal/mol
   Rotational Enthalpy:           0.889 kcal/mol
   Vibrational Enthalpy:        125.789 kcal/mol
   gas constant (RT):             0.593 kcal/mol
   Translational Entropy:        40.457  cal/mol.K
   Rotational Entropy:           29.276  cal/mol.K
   Vibrational Entropy:          23.605  cal/mol.K

   Total Enthalpy:              128.159 kcal/mol
   Total Entropy:                93.337  cal/mol.K

 Total job time:  10398.71s(wall), 149815.84s(cpu)
        *  Thank you very much for using Q-Chem.  Have a nice day.  *
