 Q-Chem 5.2 (devel), Q-Chem, Inc., Pleasanton, CA (2019)
 Q-Chem 5.2.2 for Intel X86 EM64T Linux

User input:
--------------------------------------------------------------
$molecule
0 1
C      1.9839655798    2.8343873569   -0.6530035790
C      2.0889665948    1.3399289492   -0.2973932582
C      3.4017166944    0.7321441035   -0.8222227424
C      4.6254659785    1.5200300416   -0.3255741318
C      4.5210827926    3.0122209378   -0.6783481608
C      3.2094896156    3.6188525050   -0.1554554411
H      3.4653882129   -0.3186255299   -0.5134835234
H      2.0538505535    1.2303619181    0.7916336585
H      1.9041773336    2.9373830819   -1.7471760654
H      1.0604862058    3.2447823031   -0.2264495779
H      4.7056113531    1.4098609561    0.7662015896
H      5.5416784391    1.0893334561   -0.7496610014
H      5.3807748665    3.5587419877   -0.2692766409
H      4.5659637339    3.1311627355   -1.7719372538
H      3.2192612515    3.6121018079    0.9447339030
H      3.1260878858    4.6703627905   -0.4590864625
H      3.3863457527    0.7409636912   -1.9242196110
N      0.9315723625    0.5939302253   -0.7942938700
H      0.8024957372    0.5217251348   -1.7968919912
C      0.0000000000    0.0000000000    0.0000000000
H     -0.7899738588   -0.5065817117   -0.5873052394
O     -0.0000000000    0.0000000000    1.2238135054
$end

$rem
JOBTYPE  OPT
METHOD  B3LYP
BASIS  6-31+G(D)
SYMMETRY  FALSE
SYM_IGNORE  TRUE
MEM_TOTAL  8000
MEM_STATIC  2000
MAX_SUB_FILE_NUM  16000
BASIS_LIN_DEP_THRESH  6
THRESH  14
SCF_CONVERGENCE  9
GEN_SCFMAN  TRUE
SCF_GUESS  SAD
FD_MAT_VEC_PROD  FALSE
XC_GRID  000099000590
NL_GRID  1
MAX_SCF_CYCLES  200
GEOM_OPT_TOL_GRADIENT  100
GEOM_OPT_TOL_DISPLACEMENT  100
GEOM_OPT_TOL_ENERGY  10
$end

$multipole_field
Z   0.011669
$end

--------------------------------------------------------------

   16    -404.6095917906      3.48e-10  Convergence criterion met
 Total energy in the final basis set =     -404.6095917906
   12    -404.6099497903      4.24e-10  Convergence criterion met
 Total energy in the final basis set =     -404.6099497903
   11    -404.6099813322      6.39e-10  Convergence criterion met
 Total energy in the final basis set =     -404.6099813322
   11    -404.6099809661      2.24e-10  Convergence criterion met
 Total energy in the final basis set =     -404.6099809661
   10    -404.6099821516      6.36e-10  Convergence criterion met
 Total energy in the final basis set =     -404.6099821516
   10    -404.6099823624      2.51e-10  Convergence criterion met
 Total energy in the final basis set =     -404.6099823624
    9    -404.6099823984      5.90e-10  Convergence criterion met
 Total energy in the final basis set =     -404.6099823984
 Final energy is   -404.609982398404
 **  OPTIMIZATION CONVERGED  **
 Total job time:  288.61s(wall), 4553.37s(cpu)
        *  Thank you very much for using Q-Chem.  Have a nice day.  *

User input: 2 of 2

                  Welcome to Q-Chem
     A Quantum Leap Into The Future Of Chemistry

 Q-Chem 5.2 (devel), Q-Chem, Inc., Pleasanton, CA (2019)

 Yihan Shao,  Zhengting Gan,  E. Epifanovsky,  A. T. B. Gilbert,  M. Wormit,
 J. Kussmann,  A. W. Lange,  A. Behn,  Jia Deng,  Xintian Feng,  D. Ghosh,
 M. Goldey,  P. R. Horn,  L. D. Jacobson,  I. Kaliman,  T. Kus,  A. Landau,
 Jie Liu,  E. I. Proynov,  R. M. Richard,  R. P. Steele,  E. J. Sundstrom,
 H. L. Woodcock III,  P. M. Zimmerman,  D. Zuev,  B. Alam,  B. Albrecht,
 E. Alguire,  S. A. Baeppler,  D. Barton,  Z. Benda,  Y. A. Bernard,
 E. J. Berquist,  K. B. Bravaya,  H. Burton,  K. Carter-Fenk,  D. Casanova,
 Chun-Min Chang,  Yunqing Chen,  A. Chien,  K. D. Closser,  M. P. Coons,
 S. Coriani,  S. Dasgupta,  A. L. Dempwolff,  M. Diedenhofen,  Hainam Do,
 R. G. Edgar,  Po-Tung Fang,  S. Faraji,  S. Fatehi,  Qingguo Feng,
 J. Fosso-Tande,  J. Gayvert,  Qinghui Ge,  A. Ghysels,  G. Gidofalvi,
 J. Gomes,  J. Gonthier,  A. Gunina,  D. Hait,  M. W. D. Hanson-Heine,
 P. H. P. Harbach,  A. W. Hauser,  M. F. Herbst,  J. E. Herr,
 E. G. Hohenstein,  Z. C. Holden,  Kerwin Hui,  B. C. Huynh,  T.-C. Jagau,
 Hyunjun Ji,  B. Kaduk,  K. Khistyaev,  Jaehoon Kim,  P. Klunzinger,  K. Koh,
 D. Kosenkov,  L. Koulias,  T. Kowalczyk,  C. M. Krauter,  A. Kunitsa,
 Ka Un Lao,  A. Laurent,  K. V. Lawler,  Joonho Lee,  D. Lefrancois,
 S. Lehtola,  D. S. Levine,  Yi-Pei Li,  You-Sheng Lin,  Fenglai Liu,
 Kuan-Yu Liu,  E. Livshits,  M. Loipersberger,  A. Luenser,  P. Manohar,
 E. Mansoor,  S. F. Manzer,  Shan-Ping Mao,  Yuezhi Mao,  N. Mardirossian,
 A. V. Marenich,  T. Markovich,  L. A. Martinez-Martinez,  S. A. Maurer,
 N. J. Mayhall,  S. C. McKenzie,  J.-M. Mewes,  P. Morgante,  A. F. Morrison,
 J. W. Mullinax,  K. Nanda,  T. S. Nguyen-Beck,  R. Olivares-Amaya,
 J. A. Parkhill,  S. K. Paul,  F. Pavosevic,  Zheng Pei,  T. M. Perrine,
 F. Plasser,  P. Pokhilko,  S. Prager,  A. Prociuk,  E. Ramos,  B. Rana,
 D. R. Rehn,  F. Rob,  M. Scheurer,  M. Schneider,  N. Sergueev,
 S. M. Sharada,  S. Sharma,  D. W. Small,  T. Stauch,  C. J. Stein,
 T. Stein,  Yu-Chuan Su,  S. P. Veccham,  Zhen Tao,  A. J. W. Thom,
 A. Tkatchenko,  T. Tsuchimochi,  N. M. Tubman,  L. Vogt,  M. L. Vidal,
 O. Vydrov,  M. A. Watson,  J. Wenzel,  M. de Wergifosse,  T. A. Wesolowski,
 A. White,  J. Witte,  A. Yamada,  Jun Yang,  K. Yao,  S. Yeganeh,
 S. R. Yost,  Zhi-Qiang You,  A. Zech,  Igor Ying Zhang,  Xing Zhang,
 Yan Zhao,  Ying Zhu,  B. R. Brooks,  G. K. L. Chan,  C. J. Cramer,
 M. S. Gordon,  W. J. Hehre,  A. Klamt,  M. W. Schmidt,  C. D. Sherrill,
 D. G. Truhlar,  A. Aspuru-Guzik,  R. Baer,  A. T. Bell,  N. A. Besley,
 Jeng-Da Chai,  A. E. DePrince, III,  R. A. DiStasio Jr.,  A. Dreuw,
 B. D. Dunietz,  T. R. Furlani,  Chao-Ping Hsu,  Yousung Jung,  Jing Kong,
 D. S. Lambrecht,  WanZhen Liang,  C. Ochsenfeld,  V. A. Rassolov,
 L. V. Slipchenko,  J. E. Subotnik,  T. Van Voorhis,  J. M. Herbert,
 A. I. Krylov,  P. M. W. Gill,  M. Head-Gordon

 Contributors to earlier versions of Q-Chem not listed above:
 R. D. Adamson,  B. Austin,  J. Baker,  G. J. O. Beran,  K. Brandhorst,
 S. T. Brown,  E. F. C. Byrd,  A. K. Chakraborty,  C.-L. Cheng,
 Siu Hung Chien,  D. M. Chipman,  D. L. Crittenden,  H. Dachsel,
 R. J. Doerksen,  A. D. Dutoi,  L. Fusti-Molnar,  W. A. Goddard III,
 A. Golubeva-Zadorozhnaya,  S. R. Gwaltney,  G. Hawkins,  A. Heyden,
 S. Hirata,  G. Kedziora,  F. J. Keil,  C. Kelley,  Jihan Kim,  R. A. King,
 R. Z. Khaliullin,  P. P. Korambath,  W. Kurlancheek,  A. M. Lee,  M. S. Lee,
 S. V. Levchenko,  Ching Yeh Lin,  D. Liotard,  R. C. Lochan,  I. Lotan,
 P. E. Maslen,  N. Nair,  D. P. O'Neill,  D. Neuhauser,  E. Neuscamman,
 C. M. Oana,  R. Olson,  B. Peters,  R. Peverati,  P. A. Pieniazek,
 Y. M. Rhee,  J. Ritchie,  M. A. Rohrdanz,  E. Rosta,  N. J. Russ,
 H. F. Schaefer III,  N. E. Schultz,  N. Shenvi,  A. C. Simmonett,  A. Sodt,
 D. Stuck,  K. S. Thanthiriwatte,  V. Vanovschi,  Tao Wang,  A. Warshel,
 C. F. Williams,  Q. Wu,  X. Xu,  W. Zhang

 Please cite Q-Chem as follows:
 Y. Shao et al., Mol. Phys. 113, 184-215 (2015)
 DOI: 10.1080/00268976.2014.952696

 Q-Chem 5.2.2 for Intel X86 EM64T Linux

 Parts of Q-Chem use Armadillo 9.800.1 (Horizon Scraper).
 http://arma.sourceforge.net/

 Q-Chem begins on Sun Mar  7 14:57:31 2021

Host: node017
0

     Scratch files written to /home/ymao90/scratch/CCX_CO_-6020210307145240//
The previous job contains 0 fragments, simply inherited here

Checking the input file for inconsistencies... 	...done.

--------------------------------------------------------------
User input:
--------------------------------------------------------------

$molecule
read
$end

$rem
JOBTYPE  FREQ
METHOD  B3LYP
BASIS  6-31+G(D)
SYMMETRY  FALSE
SYM_IGNORE  TRUE
MEM_TOTAL  8000
MEM_STATIC  2000
MAX_SUB_FILE_NUM  16000
BASIS_LIN_DEP_THRESH  6
THRESH  14
SCF_CONVERGENCE  9
GEN_SCFMAN  TRUE
SCF_GUESS  READ
FD_MAT_VEC_PROD  FALSE
XC_GRID  000099000590
IDERIV   1
NL_GRID  1
MAX_SCF_CYCLES  200
ISOTOPES TRUE
$end

$isotopes
1 0
1
 21 2.0141018
$end

$multipole_field
Z   0.011669
$end
--------------------------------------------------------------

 Total energy in the final basis set =     -404.6099825659
   10    -404.6099817585      2.34e-10  Convergence criterion met
 Total energy in the final basis set =     -404.6099817585
    9    -404.6099824192      9.97e-10  Convergence criterion met
 Total energy in the final basis set =     -404.6099824192
   10    -404.6099821150      3.18e-10  Convergence criterion met
 Total energy in the final basis set =     -404.6099821150
    9    -404.6099823869      7.31e-10  Convergence criterion met
 Total energy in the final basis set =     -404.6099823869
   10    -404.6099822344      3.44e-10  Convergence criterion met
 Total energy in the final basis set =     -404.6099822344
   10    -404.6099813827      6.05e-10  Convergence criterion met
 Total energy in the final basis set =     -404.6099813827
   10    -404.6099807693      9.59e-10  Convergence criterion met
 Total energy in the final basis set =     -404.6099807693

                    Orbital Energies (a.u.)
 --------------------------------------------------------------

 Alpha MOs
 -- Occupied --
-19.1291 -14.3689 -10.2902 -10.2265 -10.1878 -10.1860 -10.1828 -10.1820
-10.1795  -1.0352  -0.9302  -0.8267  -0.7441  -0.7433  -0.6368  -0.6139
 -0.5921  -0.5662  -0.5256  -0.4839  -0.4600  -0.4449  -0.4395  -0.4174
 -0.4152  -0.3973  -0.3813  -0.3730  -0.3476  -0.3472  -0.3248  -0.3155
 -0.3112  -0.2646  -0.2572

          Ground-State Mulliken Net Atomic Charges

     Atom                 Charge (a.u.)
  ----------------------------------------
      1 C                    -0.228423
      2 C                    -0.499204
      3 C                    -0.248882
      4 C                    -0.455376
      5 C                    -0.340257
      6 C                    -0.460680
      7 H                     0.204692
      8 H                     0.212047
      9 H                     0.235589
     10 H                     0.200024
     11 H                     0.165069
     12 H                     0.214880
     13 H                     0.182895
     14 H                     0.237756
     15 H                     0.164108
     16 H                     0.209193
     17 H                     0.236150
     18 N                    -0.380303
     19 H                     0.430259
     20 C                     0.317379
     21 H                     0.165941
     22 O                    -0.562857
  ----------------------------------------
  Sum of atomic charges =     0.000000

                    Cartesian Multipole Moments
 -----------------------------------------------------------------
    Charge (ESU x 10^10)
                 0.0000
    Dipole Moment (Debye)
         X       1.8537      Y       1.1482      Z      -6.3503
       Tot       6.7142
    Quadrupole Moments (Debye-Ang)
        XX     -51.0606     XY       3.6425     YY     -54.5431
        XZ      -6.1425     YZ      -4.0782     ZZ     -56.6178

             Standard Nuclear Orientation (Angstroms)
    I     Atom           X                Y                Z
 ----------------------------------------------------------------
    1      C       1.9833098040     2.8318213837    -0.6805724649
    2      C       2.0918615923     1.3397351094    -0.3170459824
    3      C       3.4014139237     0.7345190294    -0.8520217707
    4      C       4.6194461333     1.5136245642    -0.3265366376
    5      C       4.5222844622     3.0124664783    -0.6540345149
    6      C       3.1987805459     3.6142887063    -0.1544900974
    7      H       3.4632863973    -0.3229532296    -0.5656475588
    8      H       2.0724660590     1.2392594757     0.7743688691
    9      H       1.9265758697     2.9379678646    -1.7730995961
   10      H       1.0498901347     3.2417845086    -0.2742142429
   11      H       4.6841608637     1.3821242803     0.7679781981
   12      H       5.5390103395     1.0916105916    -0.7500322746
   13      H       5.3740192434     3.5523281608    -0.2176932671
   14      H       4.5949963801     3.1506246118    -1.7409915466
   15      H       3.1841649700     3.5994613059     0.9497782828
   16      H       3.1216686134     4.6660753581    -0.4573579296
   17      H       3.3976047752     0.7644456817    -1.9508994473
   18      N       0.9260659316     0.5870651799    -0.7852662071
   19      H       0.7846490334     0.4962247534    -1.7868259085
   20      C       0.0112003103     0.0121318225     0.0252829700
   21      H      -0.7867509612    -0.5025857647    -0.5373623748
   22      O       0.0243026636     0.0310468688     1.2612876076
 ----------------------------------------------------------------

 Frequency:        35.55                 105.80                 211.82
 Force Cnst:      0.0036                 0.0235                 0.0697
 Red. Mass:       4.8069                 3.5587                 2.6354
 IR Intens:        7.142                  5.170                 22.186
 Frequency:       218.64                 229.28                 333.56
 Force Cnst:      0.0844                 0.0553                 0.1248
 Red. Mass:       2.9961                 1.7868                 1.9041
 IR Intens:       16.485                  0.116                  0.347
 Frequency:       400.02                 412.52                 453.30
 Force Cnst:      0.3514                 0.3636                 0.2709
 Red. Mass:       3.7270                 3.6262                 2.2378
 IR Intens:        8.751                 16.456                  0.582
 Frequency:       464.17                 535.43                 616.46
 Force Cnst:      0.4491                 0.2745                 0.2536
 Red. Mass:       3.5380                 1.6252                 1.1326
 IR Intens:        6.293                  1.623                 60.308
 Frequency:       747.23                 801.89                 823.26
 Force Cnst:      1.3715                 0.5474                 0.9619
 Red. Mass:       4.1690                 1.4448                 2.4087
 IR Intens:        4.387                  0.043                  0.876
 Frequency:       848.28                 905.62                 920.60
 Force Cnst:      0.8609                 0.9433                 0.9902
 Red. Mass:       2.0306                 1.9520                 1.9830
 IR Intens:        0.901                  7.596                  0.693
 Frequency:       936.14                 968.31                1024.30
 Force Cnst:      0.7525                 1.2926                 0.9882
 Red. Mass:       1.4573                 2.3399                 1.5986
 IR Intens:        0.579                  2.583                  0.146
 Frequency:      1039.73                1072.17                1080.54
 Force Cnst:      1.1508                 0.9515                 2.5720
 Red. Mass:       1.8068                 1.4049                 3.7389
 IR Intens:        1.019                  1.026                 12.286
 Frequency:      1094.12                1102.56                1178.16
 Force Cnst:      0.8517                 1.7293                 1.8773
 Red. Mass:       1.2075                 2.4145                 2.2955
 IR Intens:        0.007                  1.254                  2.261
 Frequency:      1217.28                1236.15                1282.18
 Force Cnst:      1.2566                 1.6473                 1.2616
 Red. Mass:       1.4393                 1.8297                 1.3024
 IR Intens:        0.218                 53.664                  8.819
 Frequency:      1299.46                1302.01                1347.18
 Force Cnst:      1.2785                 1.3591                 1.3762
 Red. Mass:       1.2851                 1.3607                 1.2870
 IR Intens:        1.710                  5.889                  2.063
 Frequency:      1352.49                1375.70                1389.30
 Force Cnst:      1.3354                 1.5274                 1.5463
 Red. Mass:       1.2391                 1.3698                 1.3598
 IR Intens:       16.899                  1.395                  2.277
 Frequency:      1389.74                1396.82                1413.08
 Force Cnst:      1.6589                 1.6892                 1.7306
 Red. Mass:       1.4578                 1.4695                 1.4710
 IR Intens:        9.159                  0.178                  1.511
 Frequency:      1430.01                1504.27                1508.78
 Force Cnst:      1.4732                 1.4479                 1.4614
 Red. Mass:       1.2228                 1.0860                 1.0896
 IR Intens:       28.298                  0.419                  6.390
 Frequency:      1510.02                1514.66                1529.17
 Force Cnst:      1.4727                 1.4725                 1.5121
 Red. Mass:       1.0962                 1.0894                 1.0975
 IR Intens:        5.781                 11.419                  1.234
 Frequency:      1565.09                1730.54                2968.42
 Force Cnst:      2.6335                11.1841                 5.5682
 Red. Mass:       1.8247                 6.3385                 1.0725
 IR Intens:      184.566                450.083                 19.660
 Frequency:      2973.90                3017.44                3033.26
 Force Cnst:      5.5889                 5.8330                 5.7663
 Red. Mass:       1.0726                 1.0873                 1.0637
 IR Intens:      114.075                 80.259                 44.578
 Frequency:      3036.06                3038.31                3062.84
 Force Cnst:      5.7613                 5.7791                 6.0135
 Red. Mass:       1.0608                 1.0625                 1.0880
 IR Intens:       15.115                 17.214                 24.186
 Frequency:      3068.90                3073.24                3077.66
 Force Cnst:      6.0450                 6.0782                 6.1641
 Red. Mass:       1.0894                 1.0923                 1.1045
 IR Intens:       45.720                 49.818                 23.726
 Frequency:      3079.16                3088.56                3573.23
 Force Cnst:      6.1178                 6.1793                 8.1140
 Red. Mass:       1.0952                 1.0995                 1.0786
 IR Intens:       20.165                 60.299                 43.098
 Frequency:        35.56                 105.07                 191.02
 Force Cnst:      0.0036                 0.0233                 0.0617
 Red. Mass:       4.8040                 3.5785                 2.8706
 IR Intens:        7.156                  5.062                 24.553
 Frequency:       216.44                 229.24                 333.39
 Force Cnst:      0.1002                 0.0553                 0.1252
 Red. Mass:       3.6306                 1.7871                 1.9125
 IR Intens:        8.924                  0.047                  0.318
 Frequency:       394.72                 404.15                 452.83
 Force Cnst:      0.3501                 0.3863                 0.2808
 Red. Mass:       3.8140                 4.0145                 2.3244
 IR Intens:        8.274                 10.967                  0.574
 Frequency:       459.52                 532.82                 609.03
 Force Cnst:      0.4017                 0.2717                 0.2462
 Red. Mass:       3.2292                 1.6244                 1.1266
 IR Intens:        1.645                  1.362                 70.909
 Frequency:       738.19                 801.88                 821.15
 Force Cnst:      1.3297                 0.5474                 0.9468
 Red. Mass:       4.1416                 1.4448                 2.3832
 IR Intens:        4.194                  0.042                  0.683
 Frequency:       847.32                 862.71                 905.69
 Force Cnst:      0.8739                 1.7861                 0.9393
 Red. Mass:       2.0659                 4.0730                 1.9435
 IR Intens:        1.096                  0.275                  7.537
 Frequency:       918.55                 936.25                 945.50
 Force Cnst:      1.0143                 0.7542                 1.2092
 Red. Mass:       2.0404                 1.4603                 2.2958
 IR Intens:        0.949                  0.600                  2.596
 Frequency:      1024.78                1040.46                1071.56
 Force Cnst:      1.3943                 1.1817                 0.9646
 Red. Mass:       2.2535                 1.8527                 1.4259
 IR Intens:        3.216                  0.744                  0.883
 Frequency:      1094.03                1102.14                1126.68
 Force Cnst:      0.8393                 1.7723                 2.5396
 Red. Mass:       1.1902                 2.4763                 3.3956
 IR Intens:        0.006                  1.091                 16.986
 Frequency:      1182.68                1216.90                1238.02
 Force Cnst:      2.0868                 1.2559                 1.8906
 Red. Mass:       2.5322                 1.4395                 2.0936
 IR Intens:       10.040                  0.060                 41.610
 Frequency:      1281.68                1299.39                1301.20
 Force Cnst:      1.2596                 1.2815                 1.3426
 Red. Mass:       1.3014                 1.2882                 1.3459
 IR Intens:        7.822                  1.745                  3.799
 Frequency:      1346.96                1351.25                1375.66
 Force Cnst:      1.3690                 1.3213                 1.5273
 Red. Mass:       1.2807                 1.2282                 1.3698
 IR Intens:        2.772                 14.104                  1.358
 Frequency:      1389.25                1389.74                1396.81
 Force Cnst:      1.5414                 1.6628                 1.6892
 Red. Mass:       1.3555                 1.4613                 1.4694
 IR Intens:        1.881                  9.043                  0.165
 Frequency:      1412.68                1504.27                1508.77
 Force Cnst:      1.7153                 1.4479                 1.4613
 Red. Mass:       1.4588                 1.0861                 1.0895
 IR Intens:        0.681                  0.422                  6.578
 Frequency:      1510.02                1514.63                1529.13
 Force Cnst:      1.4727                 1.4731                 1.5124
 Red. Mass:       1.0962                 1.0899                 1.0978
 IR Intens:        5.767                 11.185                  1.314
 Frequency:      1558.39                1708.89                2232.16
 Force Cnst:      2.4710                15.4177                 7.0798
 Red. Mass:       1.7269                 8.9606                 2.4117
 IR Intens:      150.109                502.815                 66.835
 Frequency:      2968.42                2973.90                3033.25
 Force Cnst:      5.5682                 5.5889                 5.7663
 Red. Mass:       1.0725                 1.0726                 1.0637
 IR Intens:       19.678                114.158                 45.327
 Frequency:      3036.06                3038.30                3062.80
 Force Cnst:      5.7613                 5.7791                 6.0133
 Red. Mass:       1.0608                 1.0626                 1.0880
 IR Intens:       15.130                 15.694                 26.567
 Frequency:      3068.90                3073.24                3077.66
 Force Cnst:      6.0450                 6.0782                 6.1641
 Red. Mass:       1.0894                 1.0923                 1.1045
 IR Intens:       45.744                 49.743                 23.724
 Frequency:      3079.16                3088.55                3573.18
 Force Cnst:      6.1178                 6.1794                 8.1135
 Red. Mass:       1.0952                 1.0995                 1.0786
 IR Intens:       19.914                 61.040                 43.526

 STANDARD THERMODYNAMIC QUANTITIES AT   298.18 K  AND     1.00 ATM

   This Molecule has  0 Imaginary Frequencies
   Zero point vibrational energy:      122.261 kcal/mol

   Atom    1 Element C  Has Mass   12.00000
   Atom    2 Element C  Has Mass   12.00000
   Atom    3 Element C  Has Mass   12.00000
   Atom    4 Element C  Has Mass   12.00000
   Atom    5 Element C  Has Mass   12.00000
   Atom    6 Element C  Has Mass   12.00000
   Atom    7 Element H  Has Mass    1.00783
   Atom    8 Element H  Has Mass    1.00783
   Atom    9 Element H  Has Mass    1.00783
   Atom   10 Element H  Has Mass    1.00783
   Atom   11 Element H  Has Mass    1.00783
   Atom   12 Element H  Has Mass    1.00783
   Atom   13 Element H  Has Mass    1.00783
   Atom   14 Element H  Has Mass    1.00783
   Atom   15 Element H  Has Mass    1.00783
   Atom   16 Element H  Has Mass    1.00783
   Atom   17 Element H  Has Mass    1.00783
   Atom   18 Element N  Has Mass   14.00307
   Atom   19 Element H  Has Mass    1.00783
   Atom   20 Element C  Has Mass   12.00000
   Atom   21 Element H  Has Mass    2.01410
   Atom   22 Element O  Has Mass   15.99491
   Molecular Mass:   128.106042 amu
   Principal axes and moments of inertia in amu*Bohr^2:
                             1           2           3
    Eigenvalues --      546.68550  2010.57948  2204.20019
          X               0.82475    -0.52582     0.20809
          Y               0.53813     0.84286    -0.00304
          Z              -0.17379     0.11449     0.97811
   Rotational Symmetry Number is   1
   The Molecule is an Asymmetric Top
   Translational Enthalpy:        0.889 kcal/mol
   Rotational Enthalpy:           0.889 kcal/mol
   Vibrational Enthalpy:        126.024 kcal/mol
   gas constant (RT):             0.593 kcal/mol
   Translational Entropy:        40.457  cal/mol.K
   Rotational Entropy:           29.273  cal/mol.K
   Vibrational Entropy:          23.011  cal/mol.K

   Total Enthalpy:              128.394 kcal/mol
   Total Entropy:                92.741  cal/mol.K

 Total job time:  4380.69s(wall), 69726.75s(cpu)
        *  Thank you very much for using Q-Chem.  Have a nice day.  *
