 Q-Chem 5.2 (devel), Q-Chem, Inc., Pleasanton, CA (2019)
 Q-Chem 5.2.2 for Intel X86 EM64T Linux

User input:
--------------------------------------------------------------
$molecule
0 1
C      1.9839655798    2.8343873569   -0.6530035790
C      2.0889665948    1.3399289492   -0.2973932582
C      3.4017166944    0.7321441035   -0.8222227424
C      4.6254659785    1.5200300416   -0.3255741318
C      4.5210827926    3.0122209378   -0.6783481608
C      3.2094896156    3.6188525050   -0.1554554411
H      3.4653882129   -0.3186255299   -0.5134835234
H      2.0538505535    1.2303619181    0.7916336585
H      1.9041773336    2.9373830819   -1.7471760654
H      1.0604862058    3.2447823031   -0.2264495779
H      4.7056113531    1.4098609561    0.7662015896
H      5.5416784391    1.0893334561   -0.7496610014
H      5.3807748665    3.5587419877   -0.2692766409
H      4.5659637339    3.1311627355   -1.7719372538
H      3.2192612515    3.6121018079    0.9447339030
H      3.1260878858    4.6703627905   -0.4590864625
H      3.3863457527    0.7409636912   -1.9242196110
N      0.9315723625    0.5939302253   -0.7942938700
H      0.8024957372    0.5217251348   -1.7968919912
C      0.0000000000    0.0000000000    0.0000000000
H     -0.7899738588   -0.5065817117   -0.5873052394
O     -0.0000000000    0.0000000000    1.2238135054
$end

$rem
JOBTYPE  OPT
METHOD  B3LYP
BASIS  6-31+G(D)
SYMMETRY  FALSE
SYM_IGNORE  TRUE
MEM_TOTAL  8000
MEM_STATIC  2000
MAX_SUB_FILE_NUM  16000
BASIS_LIN_DEP_THRESH  6
THRESH  14
SCF_CONVERGENCE  9
GEN_SCFMAN  TRUE
SCF_GUESS  SAD
FD_MAT_VEC_PROD  FALSE
XC_GRID  000099000590
NL_GRID  1
MAX_SCF_CYCLES  200
GEOM_OPT_TOL_GRADIENT  100
GEOM_OPT_TOL_DISPLACEMENT  100
GEOM_OPT_TOL_ENERGY  10
$end

--------------------------------------------------------------

   16    -404.5870300126      1.40e-10  Convergence criterion met
 Total energy in the final basis set =     -404.5870300126
   10    -404.5870301205      2.51e-10  Convergence criterion met
 Total energy in the final basis set =     -404.5870301205
   10    -404.5870303763      4.10e-10  Convergence criterion met
 Total energy in the final basis set =     -404.5870303763
   10    -404.5870307533      5.17e-10  Convergence criterion met
 Total energy in the final basis set =     -404.5870307533
   13    -404.5870350797      4.73e-10  Convergence criterion met
 Total energy in the final basis set =     -404.5870350797
   12    -404.5870382115      8.12e-10  Convergence criterion met
 Total energy in the final basis set =     -404.5870382115
   12    -404.5870442064      9.44e-10  Convergence criterion met
 Total energy in the final basis set =     -404.5870442064
   11    -404.5870529062      9.92e-10  Convergence criterion met
 Total energy in the final basis set =     -404.5870529062
   12    -404.5870575471      2.98e-10  Convergence criterion met
 Total energy in the final basis set =     -404.5870575471
   11    -404.5870594667      5.94e-10  Convergence criterion met
 Total energy in the final basis set =     -404.5870594667
   12    -404.5870598145      2.97e-10  Convergence criterion met
 Total energy in the final basis set =     -404.5870598145
   11    -404.5870598737      3.40e-10  Convergence criterion met
 Total energy in the final basis set =     -404.5870598737
 Final energy is   -404.587059873689
 **  OPTIMIZATION CONVERGED  **
 Total job time:  528.25s(wall), 8345.75s(cpu)
        *  Thank you very much for using Q-Chem.  Have a nice day.  *

User input: 2 of 2

                  Welcome to Q-Chem
     A Quantum Leap Into The Future Of Chemistry

 Q-Chem 5.2 (devel), Q-Chem, Inc., Pleasanton, CA (2019)

 Yihan Shao,  Zhengting Gan,  E. Epifanovsky,  A. T. B. Gilbert,  M. Wormit,
 J. Kussmann,  A. W. Lange,  A. Behn,  Jia Deng,  Xintian Feng,  D. Ghosh,
 M. Goldey,  P. R. Horn,  L. D. Jacobson,  I. Kaliman,  T. Kus,  A. Landau,
 Jie Liu,  E. I. Proynov,  R. M. Richard,  R. P. Steele,  E. J. Sundstrom,
 H. L. Woodcock III,  P. M. Zimmerman,  D. Zuev,  B. Alam,  B. Albrecht,
 E. Alguire,  S. A. Baeppler,  D. Barton,  Z. Benda,  Y. A. Bernard,
 E. J. Berquist,  K. B. Bravaya,  H. Burton,  K. Carter-Fenk,  D. Casanova,
 Chun-Min Chang,  Yunqing Chen,  A. Chien,  K. D. Closser,  M. P. Coons,
 S. Coriani,  S. Dasgupta,  A. L. Dempwolff,  M. Diedenhofen,  Hainam Do,
 R. G. Edgar,  Po-Tung Fang,  S. Faraji,  S. Fatehi,  Qingguo Feng,
 J. Fosso-Tande,  J. Gayvert,  Qinghui Ge,  A. Ghysels,  G. Gidofalvi,
 J. Gomes,  J. Gonthier,  A. Gunina,  D. Hait,  M. W. D. Hanson-Heine,
 P. H. P. Harbach,  A. W. Hauser,  M. F. Herbst,  J. E. Herr,
 E. G. Hohenstein,  Z. C. Holden,  Kerwin Hui,  B. C. Huynh,  T.-C. Jagau,
 Hyunjun Ji,  B. Kaduk,  K. Khistyaev,  Jaehoon Kim,  P. Klunzinger,  K. Koh,
 D. Kosenkov,  L. Koulias,  T. Kowalczyk,  C. M. Krauter,  A. Kunitsa,
 Ka Un Lao,  A. Laurent,  K. V. Lawler,  Joonho Lee,  D. Lefrancois,
 S. Lehtola,  D. S. Levine,  Yi-Pei Li,  You-Sheng Lin,  Fenglai Liu,
 Kuan-Yu Liu,  E. Livshits,  M. Loipersberger,  A. Luenser,  P. Manohar,
 E. Mansoor,  S. F. Manzer,  Shan-Ping Mao,  Yuezhi Mao,  N. Mardirossian,
 A. V. Marenich,  T. Markovich,  L. A. Martinez-Martinez,  S. A. Maurer,
 N. J. Mayhall,  S. C. McKenzie,  J.-M. Mewes,  P. Morgante,  A. F. Morrison,
 J. W. Mullinax,  K. Nanda,  T. S. Nguyen-Beck,  R. Olivares-Amaya,
 J. A. Parkhill,  S. K. Paul,  F. Pavosevic,  Zheng Pei,  T. M. Perrine,
 F. Plasser,  P. Pokhilko,  S. Prager,  A. Prociuk,  E. Ramos,  B. Rana,
 D. R. Rehn,  F. Rob,  M. Scheurer,  M. Schneider,  N. Sergueev,
 S. M. Sharada,  S. Sharma,  D. W. Small,  T. Stauch,  C. J. Stein,
 T. Stein,  Yu-Chuan Su,  S. P. Veccham,  Zhen Tao,  A. J. W. Thom,
 A. Tkatchenko,  T. Tsuchimochi,  N. M. Tubman,  L. Vogt,  M. L. Vidal,
 O. Vydrov,  M. A. Watson,  J. Wenzel,  M. de Wergifosse,  T. A. Wesolowski,
 A. White,  J. Witte,  A. Yamada,  Jun Yang,  K. Yao,  S. Yeganeh,
 S. R. Yost,  Zhi-Qiang You,  A. Zech,  Igor Ying Zhang,  Xing Zhang,
 Yan Zhao,  Ying Zhu,  B. R. Brooks,  G. K. L. Chan,  C. J. Cramer,
 M. S. Gordon,  W. J. Hehre,  A. Klamt,  M. W. Schmidt,  C. D. Sherrill,
 D. G. Truhlar,  A. Aspuru-Guzik,  R. Baer,  A. T. Bell,  N. A. Besley,
 Jeng-Da Chai,  A. E. DePrince, III,  R. A. DiStasio Jr.,  A. Dreuw,
 B. D. Dunietz,  T. R. Furlani,  Chao-Ping Hsu,  Yousung Jung,  Jing Kong,
 D. S. Lambrecht,  WanZhen Liang,  C. Ochsenfeld,  V. A. Rassolov,
 L. V. Slipchenko,  J. E. Subotnik,  T. Van Voorhis,  J. M. Herbert,
 A. I. Krylov,  P. M. W. Gill,  M. Head-Gordon

 Contributors to earlier versions of Q-Chem not listed above:
 R. D. Adamson,  B. Austin,  J. Baker,  G. J. O. Beran,  K. Brandhorst,
 S. T. Brown,  E. F. C. Byrd,  A. K. Chakraborty,  C.-L. Cheng,
 Siu Hung Chien,  D. M. Chipman,  D. L. Crittenden,  H. Dachsel,
 R. J. Doerksen,  A. D. Dutoi,  L. Fusti-Molnar,  W. A. Goddard III,
 A. Golubeva-Zadorozhnaya,  S. R. Gwaltney,  G. Hawkins,  A. Heyden,
 S. Hirata,  G. Kedziora,  F. J. Keil,  C. Kelley,  Jihan Kim,  R. A. King,
 R. Z. Khaliullin,  P. P. Korambath,  W. Kurlancheek,  A. M. Lee,  M. S. Lee,
 S. V. Levchenko,  Ching Yeh Lin,  D. Liotard,  R. C. Lochan,  I. Lotan,
 P. E. Maslen,  N. Nair,  D. P. O'Neill,  D. Neuhauser,  E. Neuscamman,
 C. M. Oana,  R. Olson,  B. Peters,  R. Peverati,  P. A. Pieniazek,
 Y. M. Rhee,  J. Ritchie,  M. A. Rohrdanz,  E. Rosta,  N. J. Russ,
 H. F. Schaefer III,  N. E. Schultz,  N. Shenvi,  A. C. Simmonett,  A. Sodt,
 D. Stuck,  K. S. Thanthiriwatte,  V. Vanovschi,  Tao Wang,  A. Warshel,
 C. F. Williams,  Q. Wu,  X. Xu,  W. Zhang

 Please cite Q-Chem as follows:
 Y. Shao et al., Mol. Phys. 113, 184-215 (2015)
 DOI: 10.1080/00268976.2014.952696

 Q-Chem 5.2.2 for Intel X86 EM64T Linux

 Parts of Q-Chem use Armadillo 9.800.1 (Horizon Scraper).
 http://arma.sourceforge.net/

 Q-Chem begins on Sun Mar  7 03:05:04 2021

Host: node029
0

     Scratch files written to /home/ymao90/scratch/CCX_CO_zerofield20210307025612//
The previous job contains 0 fragments, simply inherited here

Checking the input file for inconsistencies... 	...done.

--------------------------------------------------------------
User input:
--------------------------------------------------------------

$molecule
read
$end

$rem
JOBTYPE  FREQ
METHOD  B3LYP
BASIS  6-31+G(D)
SYMMETRY  FALSE
SYM_IGNORE  TRUE
MEM_TOTAL  8000
MEM_STATIC  2000
MAX_SUB_FILE_NUM  16000
BASIS_LIN_DEP_THRESH  6
THRESH  14
SCF_CONVERGENCE  9
GEN_SCFMAN  TRUE
SCF_GUESS  READ
FD_MAT_VEC_PROD  FALSE
XC_GRID  000099000590
NL_GRID  1
MAX_SCF_CYCLES  200
ISOTOPES TRUE
$end

$isotopes
1 0
1
 21 2.0141018
$end
--------------------------------------------------------------

             Standard Nuclear Orientation (Angstroms)
    I     Atom           X                Y                Z
 ----------------------------------------------------------------
    1      C       1.9716673111     2.7772694107    -0.6106301898
    2      C       2.1297241763     1.2787562859    -0.2899267400
    3      C       3.4466315678     0.7229044663    -0.8550441377
    4      C       4.6561968874     1.5374678632    -0.3661289616
    5      C       4.4995856827     3.0341369326    -0.6789757483
    6      C       3.1811224133     3.5874020588    -0.1156895175
    7      H       3.5513670590    -0.3321942470    -0.5722075074
    8      H       2.1226194181     1.1518487001     0.7983084916
    9      H       1.8684306356     2.8985737847    -1.7004223644
   10      H       1.0441566253     3.1470697098    -0.1575914210
   11      H       4.7640382656     1.4032315691     0.7205050123
   12      H       5.5750161919     1.1450999528    -0.8206672280
   13      H       5.3515122012     3.5951795534    -0.2733060311
   14      H       4.5186955296     3.1810950868    -1.7698870033
   15      H       3.2126639079     3.5542634498     0.9836506479
   16      H       3.0602660570     4.6429859381    -0.3911400585
   17      H       3.4093823134     0.7569594444    -1.9563649616
   18      N       0.9927360012     0.4972917303    -0.7814582739
   19      H       0.9645371278     0.2560511843    -1.7652439229
   20      C      -0.0789155638     0.1493733916    -0.0194068271
   21      H      -0.8356796100    -0.4211425431    -0.5918204644
   22      O      -0.2213471133     0.4094430181     1.1680513130
 ----------------------------------------------------------------

    2    -404.5870598741      1.14e-10  Convergence criterion met
 Total energy in the final basis set =     -404.5870598741

                    Orbital Energies (a.u.)
 --------------------------------------------------------------

 Alpha MOs
 -- Occupied --
-19.1270 -14.3742 -10.2913 -10.2329 -10.1973 -10.1935 -10.1909 -10.1906
-10.1904  -1.0381  -0.9351  -0.8346  -0.7532  -0.7506  -0.6436  -0.6239
 -0.5975  -0.5733  -0.5327  -0.4888  -0.4680  -0.4529  -0.4474  -0.4220
 -0.4157  -0.4039  -0.3898  -0.3782  -0.3579  -0.3550  -0.3335  -0.3240
 -0.3184  -0.2636  -0.2593

          Ground-State Mulliken Net Atomic Charges

     Atom                 Charge (a.u.)
  ----------------------------------------
      1 C                    -0.202594
      2 C                    -0.501617
      3 C                    -0.310784
      4 C                    -0.420179
      5 C                    -0.386386
      6 C                    -0.433307
      7 H                     0.212287
      8 H                     0.238102
      9 H                     0.196536
     10 H                     0.216333
     11 H                     0.204532
     12 H                     0.198369
     13 H                     0.196745
     14 H                     0.195815
     15 H                     0.205218
     16 H                     0.198819
     17 H                     0.193499
     18 N                    -0.385964
     19 H                     0.393726
     20 C                     0.327793
     21 H                     0.143012
     22 O                    -0.479954
  ----------------------------------------
  Sum of atomic charges =     0.000000

                    Cartesian Multipole Moments
 -----------------------------------------------------------------
    Charge (ESU x 10^10)
                -0.0000
    Dipole Moment (Debye)
         X       2.1634      Y       0.2963      Z      -3.5431
       Tot       4.1620
    Quadrupole Moments (Debye-Ang)
        XX     -51.5811     XY       3.5238     YY     -55.1353
        XZ       0.3331     YZ      -0.8490     ZZ     -57.6127

 Frequency:        19.59                 102.44                 173.64
 Force Cnst:      0.0011                 0.0223                 0.0395
 Red. Mass:       4.7241                 3.6128                 2.2217
 IR Intens:        7.158                  5.093                 32.238
 Frequency:       215.51                 229.57                 334.29
 Force Cnst:      0.0861                 0.0567                 0.1268
 Red. Mass:       3.1466                 1.8268                 1.9252
 IR Intens:       12.940                  0.607                  0.192
 Frequency:       379.14                 407.87                 443.97
 Force Cnst:      0.3072                 0.3856                 0.2798
 Red. Mass:       3.6270                 3.9344                 2.4089
 IR Intens:       18.728                 14.388                  0.518
 Frequency:       461.86                 529.11                 538.40
 Force Cnst:      0.3618                 0.2033                 0.2676
 Red. Mass:       2.8784                 1.2327                 1.5668
 IR Intens:        8.921                 29.496                  5.866
 Frequency:       749.72                 800.68                 824.22
 Force Cnst:      1.3319                 0.5478                 1.0067
 Red. Mass:       4.0220                 1.4502                 2.5150
 IR Intens:        3.504                  0.193                  1.005
 Frequency:       851.67                 904.68                 918.94
 Force Cnst:      0.8746                 0.9073                 0.9360
 Red. Mass:       2.0465                 1.8815                 1.8812
 IR Intens:        1.009                  6.863                  0.315
 Frequency:       938.56                 969.13                1014.92
 Force Cnst:      0.7867                 1.3118                 0.9776
 Red. Mass:       1.5158                 2.3706                 1.6109
 IR Intens:        0.624                  4.179                  0.083
 Frequency:      1041.07                1068.87                1077.04
 Force Cnst:      1.1479                 1.0540                 1.8720
 Red. Mass:       1.7977                 1.5658                 2.7390
 IR Intens:        1.457                  1.875                  5.080
 Frequency:      1097.54                1105.19                1176.78
 Force Cnst:      0.8853                 1.6430                 1.7958
 Red. Mass:       1.2473                 2.2831                 2.2011
 IR Intens:        0.088                  1.359                  0.161
 Frequency:      1212.48                1223.12                1283.00
 Force Cnst:      1.4463                 1.4721                 1.3099
 Red. Mass:       1.6698                 1.6701                 1.3507
 IR Intens:       48.895                 35.649                 11.873
 Frequency:      1295.61                1300.17                1342.82
 Force Cnst:      1.2566                 1.2812                 1.3522
 Red. Mass:       1.2706                 1.2864                 1.2728
 IR Intens:        4.008                  2.699                  7.747
 Frequency:      1354.26                1379.65                1387.40
 Force Cnst:      1.3740                 1.5516                 1.5307
 Red. Mass:       1.2716                 1.3835                 1.3497
 IR Intens:        6.969                  0.673                  0.768
 Frequency:      1392.50                1395.26                1412.20
 Force Cnst:      1.7121                 1.6621                 1.7157
 Red. Mass:       1.4986                 1.4491                 1.4602
 IR Intens:        2.552                  5.521                  1.041
 Frequency:      1427.78                1504.91                1508.76
 Force Cnst:      1.4570                 1.4493                 1.4660
 Red. Mass:       1.2131                 1.0861                 1.0931
 IR Intens:        8.880                  0.318                  3.431
 Frequency:      1511.46                1516.02                1528.00
 Force Cnst:      1.4745                 1.4695                 1.5328
 Red. Mass:       1.0955                 1.0852                 1.1142
 IR Intens:        5.526                 13.131                  5.243
 Frequency:      1543.92                1771.78                2972.39
 Force Cnst:      2.4913                13.5515                 5.6506
 Red. Mass:       1.7739                 7.3269                 1.0855
 IR Intens:      190.237                395.698                128.686
 Frequency:      2998.76                3011.00                3013.57
 Force Cnst:      5.6677                 5.7113                 5.7323
 Red. Mass:       1.0697                 1.0692                 1.0713
 IR Intens:       23.948                 24.498                 22.898
 Frequency:      3022.84                3025.07                3065.53
 Force Cnst:      5.7271                 5.7228                 6.0452
 Red. Mass:       1.0638                 1.0614                 1.0918
 IR Intens:       14.997                 53.797                 78.351
 Frequency:      3067.11                3069.42                3071.41
 Force Cnst:      6.0844                 6.0537                 6.1254
 Red. Mass:       1.0978                 1.0906                 1.1021
 IR Intens:       61.463                 13.650                 58.227
 Frequency:      3080.08                3091.67                3590.85
 Force Cnst:      6.0950                 6.1527                 8.1874
 Red. Mass:       1.0904                 1.0925                 1.0777
 IR Intens:       28.014                 34.812                 14.600
 Frequency:        19.59                 101.70                 157.44
 Force Cnst:      0.0011                 0.0221                 0.0396
 Red. Mass:       4.7345                 3.6312                 2.7135
 IR Intens:        7.153                  4.964                 27.939
 Frequency:       212.73                 229.48                 334.09
 Force Cnst:      0.0917                 0.0564                 0.1276
 Red. Mass:       3.4409                 1.8188                 1.9409
 IR Intens:        9.129                  0.399                  0.174
 Frequency:       374.29                 403.99                 443.46
 Force Cnst:      0.3131                 0.3974                 0.2804
 Red. Mass:       3.7932                 4.1332                 2.4202
 IR Intens:       12.592                 12.789                  1.042
 Frequency:       461.23                 512.96                 533.64
 Force Cnst:      0.3606                 0.1787                 0.2788
 Red. Mass:       2.8770                 1.1527                 1.6620
 IR Intens:        5.853                 48.258                  1.362
 Frequency:       740.61                 800.66                 821.84
 Force Cnst:      1.2893                 0.5483                 0.9852
 Red. Mass:       3.9897                 1.4516                 2.4758
 IR Intens:        3.380                  0.193                  0.818
 Frequency:       850.48                 857.20                 904.70
 Force Cnst:      0.8941                 1.7481                 0.9037
 Red. Mass:       2.0979                 4.0377                 1.8741
 IR Intens:        1.111                  0.353                  6.732
 Frequency:       916.49                 937.23                 943.95
 Force Cnst:      0.9880                 0.8196                 1.1007
 Red. Mass:       1.9964                 1.5836                 2.0967
 IR Intens:        0.647                  1.794                  2.390
 Frequency:      1020.52                1041.43                1069.61
 Force Cnst:      1.3948                 1.1640                 0.9440
 Red. Mass:       2.2731                 1.8215                 1.4004
 IR Intens:        1.562                  1.141                  1.091
 Frequency:      1097.50                1104.74                1124.26
 Force Cnst:      0.8765                 1.6700                 2.4385
 Red. Mass:       1.2351                 2.3225                 3.2745
 IR Intens:        0.085                  1.415                 14.151
 Frequency:      1182.48                1217.85                1224.83
 Force Cnst:      2.0402                 1.3595                 1.7860
 Red. Mass:       2.4765                 1.5557                 2.0206
 IR Intens:        6.352                  8.770                 57.392
 Frequency:      1282.50                1295.54                1299.85
 Force Cnst:      1.3068                 1.2550                 1.2761
 Red. Mass:       1.3485                 1.2691                 1.2819
 IR Intens:        9.781                  3.837                  2.083
 Frequency:      1342.09                1353.75                1379.63
 Force Cnst:      1.3390                 1.3706                 1.5515
 Red. Mass:       1.2617                 1.2693                 1.3834
 IR Intens:        7.054                  5.374                  0.650
 Frequency:      1387.36                1392.49                1395.25
 Force Cnst:      1.5299                 1.7119                 1.6623
 Red. Mass:       1.3491                 1.4985                 1.4493
 IR Intens:        0.753                  2.586                  5.562
 Frequency:      1411.55                1504.91                1508.75
 Force Cnst:      1.7054                 1.4493                 1.4659
 Red. Mass:       1.4527                 1.0861                 1.0930
 IR Intens:        0.839                  0.320                  3.690
 Frequency:      1511.46                1515.99                1527.60
 Force Cnst:      1.4745                 1.4712                 1.5594
 Red. Mass:       1.0955                 1.0865                 1.1342
 IR Intens:        5.514                 13.270                 11.844
 Frequency:      1538.57                1750.09                2199.06
 Force Cnst:      2.3032                15.8494                 6.9152
 Red. Mass:       1.6514                 8.7830                 2.4271
 IR Intens:      152.606                427.058                101.271
 Frequency:      2998.75                3010.99                3013.57
 Force Cnst:      5.6676                 5.7113                 5.7322
 Red. Mass:       1.0697                 1.0692                 1.0713
 IR Intens:       22.844                 23.291                 23.063
 Frequency:      3022.84                3025.07                3065.53
 Force Cnst:      5.7271                 5.7228                 6.0452
 Red. Mass:       1.0638                 1.0614                 1.0918
 IR Intens:       14.986                 53.663                 79.468
 Frequency:      3067.11                3069.42                3071.41
 Force Cnst:      6.0844                 6.0537                 6.1254
 Red. Mass:       1.0978                 1.0906                 1.1021
 IR Intens:       61.466                 13.574                 57.754
 Frequency:      3080.07                3091.65                3590.79
 Force Cnst:      6.0949                 6.1528                 8.1870
 Red. Mass:       1.0904                 1.0925                 1.0777
 IR Intens:       28.311                 35.425                 14.786

 STANDARD THERMODYNAMIC QUANTITIES AT   298.18 K  AND     1.00 ATM

   This Molecule has  0 Imaginary Frequencies
   Zero point vibrational energy:      122.006 kcal/mol

   Atom    1 Element C  Has Mass   12.00000
   Atom    2 Element C  Has Mass   12.00000
   Atom    3 Element C  Has Mass   12.00000
   Atom    4 Element C  Has Mass   12.00000
   Atom    5 Element C  Has Mass   12.00000
   Atom    6 Element C  Has Mass   12.00000
   Atom    7 Element H  Has Mass    1.00783
   Atom    8 Element H  Has Mass    1.00783
   Atom    9 Element H  Has Mass    1.00783
   Atom   10 Element H  Has Mass    1.00783
   Atom   11 Element H  Has Mass    1.00783
   Atom   12 Element H  Has Mass    1.00783
   Atom   13 Element H  Has Mass    1.00783
   Atom   14 Element H  Has Mass    1.00783
   Atom   15 Element H  Has Mass    1.00783
   Atom   16 Element H  Has Mass    1.00783
   Atom   17 Element H  Has Mass    1.00783
   Atom   18 Element N  Has Mass   14.00307
   Atom   19 Element H  Has Mass    1.00783
   Atom   20 Element C  Has Mass   12.00000
   Atom   21 Element H  Has Mass    2.01410
   Atom   22 Element O  Has Mass   15.99491
   Molecular Mass:   128.106042 amu
   Principal axes and moments of inertia in amu*Bohr^2:
                             1           2           3
    Eigenvalues --      540.57837  1983.93329  2223.16179
          X               0.85978    -0.43715     0.26397
          Y               0.48348     0.86324    -0.14514
          Z              -0.16442     0.25242     0.95355
   Rotational Symmetry Number is   1
   The Molecule is an Asymmetric Top
   Translational Enthalpy:        0.889 kcal/mol
   Rotational Enthalpy:           0.889 kcal/mol
   Vibrational Enthalpy:        125.889 kcal/mol
   gas constant (RT):             0.593 kcal/mol
   Translational Entropy:        40.457  cal/mol.K
   Rotational Entropy:           29.257  cal/mol.K
   Vibrational Entropy:          24.945  cal/mol.K

   Total Enthalpy:              128.259 kcal/mol
   Total Entropy:                94.659  cal/mol.K

 Total job time:  769.86s(wall), 12109.20s(cpu)
        *  Thank you very much for using Q-Chem.  Have a nice day.  *
