 Q-Chem 5.2 (devel), Q-Chem, Inc., Pleasanton, CA (2019)
 Q-Chem 5.2.2 for Intel X86 EM64T Linux

User input:
--------------------------------------------------------------
$molecule
0 1
C      1.9839655798    2.8343873569   -0.6530035790
C      2.0889665948    1.3399289492   -0.2973932582
C      3.4017166944    0.7321441035   -0.8222227424
C      4.6254659785    1.5200300416   -0.3255741318
C      4.5210827926    3.0122209378   -0.6783481608
C      3.2094896156    3.6188525050   -0.1554554411
H      3.4653882129   -0.3186255299   -0.5134835234
H      2.0538505535    1.2303619181    0.7916336585
H      1.9041773336    2.9373830819   -1.7471760654
H      1.0604862058    3.2447823031   -0.2264495779
H      4.7056113531    1.4098609561    0.7662015896
H      5.5416784391    1.0893334561   -0.7496610014
H      5.3807748665    3.5587419877   -0.2692766409
H      4.5659637339    3.1311627355   -1.7719372538
H      3.2192612515    3.6121018079    0.9447339030
H      3.1260878858    4.6703627905   -0.4590864625
H      3.3863457527    0.7409636912   -1.9242196110
N      0.9315723625    0.5939302253   -0.7942938700
H      0.8024957372    0.5217251348   -1.7968919912
C      0.0000000000    0.0000000000    0.0000000000
H     -0.7899738588   -0.5065817117   -0.5873052394
O     -0.0000000000    0.0000000000    1.2238135054
$end

$rem
JOBTYPE  OPT
METHOD  B3LYP
BASIS  6-31+G(D)
SYMMETRY  FALSE
SYM_IGNORE  TRUE
MEM_TOTAL  8000
MEM_STATIC  2000
MAX_SUB_FILE_NUM  16000
BASIS_LIN_DEP_THRESH  6
THRESH  14
SCF_CONVERGENCE  9
GEN_SCFMAN  TRUE
SCF_GUESS  SAD
FD_MAT_VEC_PROD  FALSE
XC_GRID  000099000590
NL_GRID  1
MAX_SCF_CYCLES  200
GEOM_OPT_TOL_GRADIENT  100
GEOM_OPT_TOL_DISPLACEMENT  100
GEOM_OPT_TOL_ENERGY  10
SOLVENT_METHOD       PCM
$end

$PCM
THEORY                     CPCM
METHOD                     SWIG
SOLVER                     INVERSION
HPOINTS                    302
HEAVYPOINTS                302
$END

$SOLVENT
DIELECTRIC                 6.97
$END

--------------------------------------------------------------

   15    -404.5992843359      5.51e-10  Convergence criterion met
 Total energy in the final basis set =     -404.5992843359
   13    -404.5996571144      3.54e-10  Convergence criterion met
 Total energy in the final basis set =     -404.5996571144
   13    -404.5997026645      3.60e-10  Convergence criterion met
 Total energy in the final basis set =     -404.5997026645
   13    -404.5996861276      3.63e-10  Convergence criterion met
 Total energy in the final basis set =     -404.5996861276
   13    -404.5997062350      3.62e-10  Convergence criterion met
 Total energy in the final basis set =     -404.5997062350
   13    -404.5997062904      3.61e-10  Convergence criterion met
 Total energy in the final basis set =     -404.5997062904
 Final energy is   -404.599706290393
 **  OPTIMIZATION CONVERGED  **
 Total job time:  464.55s(wall), 6614.62s(cpu)
        *  Thank you very much for using Q-Chem.  Have a nice day.  *

User input: 2 of 2

                  Welcome to Q-Chem
     A Quantum Leap Into The Future Of Chemistry

 Q-Chem 5.2 (devel), Q-Chem, Inc., Pleasanton, CA (2019)

 Yihan Shao,  Zhengting Gan,  E. Epifanovsky,  A. T. B. Gilbert,  M. Wormit,
 J. Kussmann,  A. W. Lange,  A. Behn,  Jia Deng,  Xintian Feng,  D. Ghosh,
 M. Goldey,  P. R. Horn,  L. D. Jacobson,  I. Kaliman,  T. Kus,  A. Landau,
 Jie Liu,  E. I. Proynov,  R. M. Richard,  R. P. Steele,  E. J. Sundstrom,
 H. L. Woodcock III,  P. M. Zimmerman,  D. Zuev,  B. Alam,  B. Albrecht,
 E. Alguire,  S. A. Baeppler,  D. Barton,  Z. Benda,  Y. A. Bernard,
 E. J. Berquist,  K. B. Bravaya,  H. Burton,  K. Carter-Fenk,  D. Casanova,
 Chun-Min Chang,  Yunqing Chen,  A. Chien,  K. D. Closser,  M. P. Coons,
 S. Coriani,  S. Dasgupta,  A. L. Dempwolff,  M. Diedenhofen,  Hainam Do,
 R. G. Edgar,  Po-Tung Fang,  S. Faraji,  S. Fatehi,  Qingguo Feng,
 J. Fosso-Tande,  J. Gayvert,  Qinghui Ge,  A. Ghysels,  G. Gidofalvi,
 J. Gomes,  J. Gonthier,  A. Gunina,  D. Hait,  M. W. D. Hanson-Heine,
 P. H. P. Harbach,  A. W. Hauser,  M. F. Herbst,  J. E. Herr,
 E. G. Hohenstein,  Z. C. Holden,  Kerwin Hui,  B. C. Huynh,  T.-C. Jagau,
 Hyunjun Ji,  B. Kaduk,  K. Khistyaev,  Jaehoon Kim,  P. Klunzinger,  K. Koh,
 D. Kosenkov,  L. Koulias,  T. Kowalczyk,  C. M. Krauter,  A. Kunitsa,
 Ka Un Lao,  A. Laurent,  K. V. Lawler,  Joonho Lee,  D. Lefrancois,
 S. Lehtola,  D. S. Levine,  Yi-Pei Li,  You-Sheng Lin,  Fenglai Liu,
 Kuan-Yu Liu,  E. Livshits,  M. Loipersberger,  A. Luenser,  P. Manohar,
 E. Mansoor,  S. F. Manzer,  Shan-Ping Mao,  Yuezhi Mao,  N. Mardirossian,
 A. V. Marenich,  T. Markovich,  L. A. Martinez-Martinez,  S. A. Maurer,
 N. J. Mayhall,  S. C. McKenzie,  J.-M. Mewes,  P. Morgante,  A. F. Morrison,
 J. W. Mullinax,  K. Nanda,  T. S. Nguyen-Beck,  R. Olivares-Amaya,
 J. A. Parkhill,  S. K. Paul,  F. Pavosevic,  Zheng Pei,  T. M. Perrine,
 F. Plasser,  P. Pokhilko,  S. Prager,  A. Prociuk,  E. Ramos,  B. Rana,
 D. R. Rehn,  F. Rob,  M. Scheurer,  M. Schneider,  N. Sergueev,
 S. M. Sharada,  S. Sharma,  D. W. Small,  T. Stauch,  C. J. Stein,
 T. Stein,  Yu-Chuan Su,  S. P. Veccham,  Zhen Tao,  A. J. W. Thom,
 A. Tkatchenko,  T. Tsuchimochi,  N. M. Tubman,  L. Vogt,  M. L. Vidal,
 O. Vydrov,  M. A. Watson,  J. Wenzel,  M. de Wergifosse,  T. A. Wesolowski,
 A. White,  J. Witte,  A. Yamada,  Jun Yang,  K. Yao,  S. Yeganeh,
 S. R. Yost,  Zhi-Qiang You,  A. Zech,  Igor Ying Zhang,  Xing Zhang,
 Yan Zhao,  Ying Zhu,  B. R. Brooks,  G. K. L. Chan,  C. J. Cramer,
 M. S. Gordon,  W. J. Hehre,  A. Klamt,  M. W. Schmidt,  C. D. Sherrill,
 D. G. Truhlar,  A. Aspuru-Guzik,  R. Baer,  A. T. Bell,  N. A. Besley,
 Jeng-Da Chai,  A. E. DePrince, III,  R. A. DiStasio Jr.,  A. Dreuw,
 B. D. Dunietz,  T. R. Furlani,  Chao-Ping Hsu,  Yousung Jung,  Jing Kong,
 D. S. Lambrecht,  WanZhen Liang,  C. Ochsenfeld,  V. A. Rassolov,
 L. V. Slipchenko,  J. E. Subotnik,  T. Van Voorhis,  J. M. Herbert,
 A. I. Krylov,  P. M. W. Gill,  M. Head-Gordon

 Contributors to earlier versions of Q-Chem not listed above:
 R. D. Adamson,  B. Austin,  J. Baker,  G. J. O. Beran,  K. Brandhorst,
 S. T. Brown,  E. F. C. Byrd,  A. K. Chakraborty,  C.-L. Cheng,
 Siu Hung Chien,  D. M. Chipman,  D. L. Crittenden,  H. Dachsel,
 R. J. Doerksen,  A. D. Dutoi,  L. Fusti-Molnar,  W. A. Goddard III,
 A. Golubeva-Zadorozhnaya,  S. R. Gwaltney,  G. Hawkins,  A. Heyden,
 S. Hirata,  G. Kedziora,  F. J. Keil,  C. Kelley,  Jihan Kim,  R. A. King,
 R. Z. Khaliullin,  P. P. Korambath,  W. Kurlancheek,  A. M. Lee,  M. S. Lee,
 S. V. Levchenko,  Ching Yeh Lin,  D. Liotard,  R. C. Lochan,  I. Lotan,
 P. E. Maslen,  N. Nair,  D. P. O'Neill,  D. Neuhauser,  E. Neuscamman,
 C. M. Oana,  R. Olson,  B. Peters,  R. Peverati,  P. A. Pieniazek,
 Y. M. Rhee,  J. Ritchie,  M. A. Rohrdanz,  E. Rosta,  N. J. Russ,
 H. F. Schaefer III,  N. E. Schultz,  N. Shenvi,  A. C. Simmonett,  A. Sodt,
 D. Stuck,  K. S. Thanthiriwatte,  V. Vanovschi,  Tao Wang,  A. Warshel,
 C. F. Williams,  Q. Wu,  X. Xu,  W. Zhang

 Please cite Q-Chem as follows:
 Y. Shao et al., Mol. Phys. 113, 184-215 (2015)
 DOI: 10.1080/00268976.2014.952696

 Q-Chem 5.2.2 for Intel X86 EM64T Linux

 Parts of Q-Chem use Armadillo 9.800.1 (Horizon Scraper).
 http://arma.sourceforge.net/

 Q-Chem begins on Tue Jul 27 17:31:50 2021

Host: node028
0

     Scratch files written to /home/ymao90/scratch/CCX_CO_0_MeTHF20210727172404//
The previous job contains 0 fragments, simply inherited here
Symmetry turned off for PCM/SM12/SMD calculation

Checking the input file for inconsistencies... 	...done.

--------------------------------------------------------------
User input:
--------------------------------------------------------------

$molecule
read
$end

$rem
JOBTYPE  FREQ
METHOD  B3LYP
BASIS  6-31+G(D)
SYMMETRY  FALSE
SYM_IGNORE  TRUE
MEM_TOTAL  8000
MEM_STATIC  2000
MAX_SUB_FILE_NUM  16000
BASIS_LIN_DEP_THRESH  6
THRESH  14
SCF_CONVERGENCE  9
GEN_SCFMAN  TRUE
SCF_GUESS  READ
FD_MAT_VEC_PROD  FALSE
XC_GRID  000099000590
NL_GRID  1
MAX_SCF_CYCLES  200
ISOTOPES TRUE
SOLVENT_METHOD       PCM
$end

$PCM
THEORY                     CPCM
METHOD                     SWIG
SOLVER                     INVERSION
HPOINTS                    302
HEAVYPOINTS                302
$END

$SOLVENT
DIELECTRIC                 6.97
$END

$isotopes
1 0
1
 21 2.0141018
$end
--------------------------------------------------------------

             Standard Nuclear Orientation (Angstroms)
    I     Atom           X                Y                Z
 ----------------------------------------------------------------
    1      C       1.9833342281     2.8320068411    -0.6429555243
    2      C       2.0937355418     1.3396237286    -0.2807348772
    3      C       3.4025456479     0.7304104280    -0.8137766638
    4      C       4.6279205223     1.5223107245    -0.3276881306
    5      C       4.5192857083     3.0124772403    -0.6877299765
    6      C       3.2112409724     3.6194460098    -0.1562119221
    7      H       3.4713080780    -0.3188591842    -0.4998250774
    8      H       2.0682980686     1.2343958368     0.8086094784
    9      H       1.8969275250     2.9249664732    -1.7364188746
   10      H       1.0629175920     3.2447343424    -0.2108740891
   11      H       4.7143264992     1.4187070989     0.7643669888
   12      H       5.5407377191     1.0900222925    -0.7576166271
   13      H       5.3813729924     3.5617645500    -0.2869890958
   14      H       4.5528445053     3.1247460586    -1.7821844909
   15      H       3.2302416525     3.6150237505     0.9440021774
   16      H       3.1228964376     4.6691753467    -0.4648236812
   17      H       3.3744742791     0.7371034647    -1.9143708265
   18      N       0.9355337653     0.5938443412    -0.7834239582
   19      H       0.8177864164     0.5286337758    -1.7895114572
   20      C      -0.0046027471     0.0016845311    -0.0216063864
   21      H      -0.7848772130    -0.4963772786    -0.6212782894
   22      O      -0.0338411063    -0.0127736313     1.2156454099
 ----------------------------------------------------------------

   13    -404.5997062908      3.61e-10  Convergence criterion met
 Total energy in the final basis set =     -404.5997062908

                    Orbital Energies (a.u.)
 --------------------------------------------------------------

 Alpha MOs
 -- Occupied --
-19.1332 -14.3719 -10.2934 -10.2262 -10.1844 -10.1838 -10.1815 -10.1812
-10.1795  -1.0386  -0.9332  -0.8256  -0.7438  -0.7425  -0.6377  -0.6126
 -0.5929  -0.5645  -0.5271  -0.4842  -0.4615  -0.4432  -0.4385  -0.4194
 -0.4179  -0.3966  -0.3799  -0.3744  -0.3487  -0.3448  -0.3232  -0.3134
 -0.3106  -0.2693  -0.2607

          Ground-State Mulliken Net Atomic Charges

     Atom                 Charge (a.u.)
  ----------------------------------------
      1 C                    -0.265739
      2 C                    -0.443121
      3 C                    -0.286727
      4 C                    -0.448296
      5 C                    -0.382372
      6 C                    -0.451906
      7 H                     0.211686
      8 H                     0.230420
      9 H                     0.210791
     10 H                     0.210967
     11 H                     0.207625
     12 H                     0.202603
     13 H                     0.199197
     14 H                     0.201678
     15 H                     0.207576
     16 H                     0.202542
     17 H                     0.210680
     18 N                    -0.384614
     19 H                     0.443756
     20 C                     0.344018
     21 H                     0.178355
     22 O                    -0.599117
  ----------------------------------------
  Sum of atomic charges =     0.000000

                    Cartesian Multipole Moments
 -----------------------------------------------------------------
    Charge (ESU x 10^10)
                -0.0000
    Dipole Moment (Debye)
         X       2.1825      Y       1.4084      Z      -5.0720
       Tot       5.6984
    Quadrupole Moments (Debye-Ang)
        XX     -50.6470     XY       4.0586     YY     -54.3426
        XZ      -0.8847     YZ      -0.6640     ZZ     -57.5130

 Frequency:        -9.65                  95.31                 191.15
 Force Cnst:      0.0003                 0.0199                 0.0478
 Red. Mass:       4.7983                 3.7155                 2.2181
 IR Intens:       13.289                  8.919                 55.372
 Frequency:       208.79                 225.88                 333.59
 Force Cnst:      0.0905                 0.0537                 0.1236
 Red. Mass:       3.5245                 1.7853                 1.8852
 IR Intens:       11.839                  0.201                  0.122
 Frequency:       397.45                 407.62                 449.44
 Force Cnst:      0.3338                 0.3645                 0.2690
 Red. Mass:       3.5862                 3.7237                 2.2606
 IR Intens:       12.706                 29.784                  0.683
 Frequency:       463.34                 531.89                 592.99
 Force Cnst:      0.4663                 0.2687                 0.2376
 Red. Mass:       3.6862                 1.6122                 1.1467
 IR Intens:       11.007                  2.240                 93.270
 Frequency:       744.65                 798.76                 821.62
 Force Cnst:      1.3703                 0.5417                 0.9709
 Red. Mass:       4.1943                 1.4412                 2.4410
 IR Intens:        5.598                  0.158                  0.825
 Frequency:       849.89                 902.07                 916.85
 Force Cnst:      0.8507                 0.8832                 0.9695
 Red. Mass:       1.9990                 1.8422                 1.9574
 IR Intens:        2.503                 15.219                  1.054
 Frequency:       935.78                 964.61                1025.94
 Force Cnst:      0.7768                 1.2886                 0.9869
 Red. Mass:       1.5056                 2.3506                 1.5914
 IR Intens:        0.518                  6.959                  0.035
 Frequency:      1036.36                1063.98                1070.34
 Force Cnst:      1.1175                 0.9278                 2.4814
 Red. Mass:       1.7660                 1.3910                 3.6762
 IR Intens:        2.545                  2.410                 19.215
 Frequency:      1092.17                1103.51                1174.75
 Force Cnst:      0.8117                 1.7923                 1.8874
 Red. Mass:       1.1550                 2.4981                 2.3213
 IR Intens:        0.018                  1.953                  5.346
 Frequency:      1211.04                1239.76                1275.72
 Force Cnst:      1.2787                 1.6099                 1.2678
 Red. Mass:       1.4798                 1.7778                 1.3222
 IR Intens:        1.435                 67.987                 16.397
 Frequency:      1288.62                1296.89                1342.59
 Force Cnst:      1.2355                 1.3750                 1.3620
 Red. Mass:       1.2628                 1.3875                 1.2825
 IR Intens:        2.722                 10.909                  2.327
 Frequency:      1345.04                1375.32                1383.21
 Force Cnst:      1.3118                 1.5439                 1.5304
 Red. Mass:       1.2307                 1.3853                 1.3576
 IR Intens:       13.335                  1.355                  0.597
 Frequency:      1385.26                1388.03                1405.10
 Force Cnst:      1.6956                 1.6897                 1.7211
 Red. Mass:       1.4997                 1.4886                 1.4796
 IR Intens:        0.019                 10.763                  0.899
 Frequency:      1427.57                1494.96                1497.81
 Force Cnst:      1.4956                 1.4325                 1.4395
 Red. Mass:       1.2456                 1.0879                 1.0891
 IR Intens:       55.275                  0.133                  4.992
 Frequency:      1500.59                1501.84                1514.19
 Force Cnst:      1.4572                 1.4497                 1.4872
 Red. Mass:       1.0984                 1.0909                 1.1009
 IR Intens:        7.304                 11.466                  0.443
 Frequency:      1560.05                1703.94                3012.96
 Force Cnst:      2.6678                 9.8307                 5.7111
 Red. Mass:       1.8605                 5.7468                 1.0678
 IR Intens:      306.889                734.675                 35.096
 Frequency:      3013.68                3017.31                3019.46
 Force Cnst:      5.7186                 5.7358                 5.7074
 Red. Mass:       1.0687                 1.0693                 1.0625
 IR Intens:       33.747                 19.209                 10.802
 Frequency:      3020.94                3025.64                3062.63
 Force Cnst:      5.7025                 5.8559                 6.0458
 Red. Mass:       1.0605                 1.0857                 1.0940
 IR Intens:      131.902                126.485                112.800
 Frequency:      3063.96                3067.66                3069.25
 Force Cnst:      6.0685                 6.0869                 6.0833
 Red. Mass:       1.0972                 1.0978                 1.0960
 IR Intens:      115.049                 78.816                 81.943
 Frequency:      3070.88                3097.65                3580.94
 Force Cnst:      6.1071                 6.1500                 8.1473
 Red. Mass:       1.0992                 1.0878                 1.0784
 IR Intens:       49.199                 50.924                 54.902
 Frequency:        -9.63                  94.65                 171.12
 Force Cnst:      0.0003                 0.0197                 0.0481
 Red. Mass:       4.8065                 3.7361                 2.7906
 IR Intens:       13.267                  8.676                 45.204
 Frequency:       208.37                 225.86                 333.39
 Force Cnst:      0.0917                 0.0536                 0.1241
 Red. Mass:       3.5829                 1.7844                 1.8948
 IR Intens:       10.367                  0.119                  0.107
 Frequency:       392.40                 401.32                 449.24
 Force Cnst:      0.3341                 0.3828                 0.2717
 Red. Mass:       3.6826                 4.0344                 2.2846
 IR Intens:       11.810                 20.343                  0.711
 Frequency:       459.16                 529.33                 583.54
 Force Cnst:      0.4324                 0.2661                 0.2277
 Red. Mass:       3.4808                 1.6120                 1.1348
 IR Intens:        3.244                  1.831                114.163
 Frequency:       735.22                 798.76                 819.54
 Force Cnst:      1.3222                 0.5417                 0.9571
 Red. Mass:       4.1516                 1.4411                 2.4186
 IR Intens:        5.350                  0.156                  0.602
 Frequency:       848.85                 862.55                 902.12
 Force Cnst:      0.8630                 1.7698                 0.8801
 Red. Mass:       2.0329                 4.0374                 1.8356
 IR Intens:        2.945                  0.817                 15.037
 Frequency:       914.50                 935.88                 942.08
 Force Cnst:      1.0092                 0.7793                 1.1766
 Red. Mass:       2.0482                 1.5101                 2.2501
 IR Intens:        1.850                  0.633                  6.168
 Frequency:      1021.75                1036.79                1063.22
 Force Cnst:      1.4205                 1.1396                 0.9369
 Red. Mass:       2.3094                 1.7994                 1.4067
 IR Intens:        6.774                  1.738                  2.136
 Frequency:      1092.11                1103.05                1119.38
 Force Cnst:      0.8050                 1.8258                 2.4346
 Red. Mass:       1.1455                 2.5469                 3.2978
 IR Intens:        0.016                  1.751                 24.124
 Frequency:      1178.92                1210.58                1243.00
 Force Cnst:      2.0731                 1.2784                 1.8801
 Red. Mass:       2.5316                 1.4806                 2.0653
 IR Intens:       17.301                  1.199                 51.665
 Frequency:      1275.21                1288.61                1295.76
 Force Cnst:      1.2627                 1.2355                 1.3587
 Red. Mass:       1.3179                 1.2629                 1.3735
 IR Intens:       13.465                  2.694                  6.839
 Frequency:      1342.32                1344.17                1375.28
 Force Cnst:      1.3457                 1.3103                 1.5436
 Red. Mass:       1.2676                 1.2308                 1.3852
 IR Intens:        3.949                  9.299                  1.307
 Frequency:      1383.13                1385.26                1388.02
 Force Cnst:      1.5304                 1.6945                 1.6891
 Red. Mass:       1.3578                 1.4988                 1.4880
 IR Intens:        0.529                  0.020                 10.574
 Frequency:      1404.61                1494.96                1497.81
 Force Cnst:      1.7094                 1.4325                 1.4395
 Red. Mass:       1.4706                 1.0879                 1.0890
 IR Intens:        0.645                  0.135                  5.079
 Frequency:      1500.59                1501.84                1514.16
 Force Cnst:      1.4572                 1.4497                 1.4873
 Red. Mass:       1.0983                 1.0909                 1.1011
 IR Intens:        7.281                 11.266                  0.617
 Frequency:      1554.02                1681.41                2235.61
 Force Cnst:      2.5008                14.3170                 7.0589
 Red. Mass:       1.7576                 8.5952                 2.3972
 IR Intens:      253.732                826.034                100.479
 Frequency:      3012.96                3013.68                3017.35
 Force Cnst:      5.7111                 5.7186                 5.7355
 Red. Mass:       1.0678                 1.0687                 1.0692
 IR Intens:       35.384                 32.979                 25.176
 Frequency:      3019.46                3020.94                3062.62
 Force Cnst:      5.7074                 5.7025                 6.0458
 Red. Mass:       1.0625                 1.0605                 1.0940
 IR Intens:       11.028                132.191                114.898
 Frequency:      3063.96                3067.65                3069.25
 Force Cnst:      6.0685                 6.0870                 6.0831
 Red. Mass:       1.0972                 1.0978                 1.0960
 IR Intens:      115.053                 78.548                 80.829
 Frequency:      3070.88                3097.61                3580.90
 Force Cnst:      6.1071                 6.1499                 8.1469
 Red. Mass:       1.0992                 1.0878                 1.0783
 IR Intens:       49.146                 53.460                 55.477

 STANDARD THERMODYNAMIC QUANTITIES AT   298.18 K  AND     1.00 ATM

   This Molecule has  1 Imaginary Frequencies
   Zero point vibrational energy:      121.852 kcal/mol

   Atom    1 Element C  Has Mass   12.00000
   Atom    2 Element C  Has Mass   12.00000
   Atom    3 Element C  Has Mass   12.00000
   Atom    4 Element C  Has Mass   12.00000
   Atom    5 Element C  Has Mass   12.00000
   Atom    6 Element C  Has Mass   12.00000
   Atom    7 Element H  Has Mass    1.00783
   Atom    8 Element H  Has Mass    1.00783
   Atom    9 Element H  Has Mass    1.00783
   Atom   10 Element H  Has Mass    1.00783
   Atom   11 Element H  Has Mass    1.00783
   Atom   12 Element H  Has Mass    1.00783
   Atom   13 Element H  Has Mass    1.00783
   Atom   14 Element H  Has Mass    1.00783
   Atom   15 Element H  Has Mass    1.00783
   Atom   16 Element H  Has Mass    1.00783
   Atom   17 Element H  Has Mass    1.00783
   Atom   18 Element N  Has Mass   14.00307
   Atom   19 Element H  Has Mass    1.00783
   Atom   20 Element C  Has Mass   12.00000
   Atom   21 Element H  Has Mass    2.01410
   Atom   22 Element O  Has Mass   15.99491
   Molecular Mass:   128.106042 amu
   Principal axes and moments of inertia in amu*Bohr^2:
                             1           2           3
    Eigenvalues --      538.08178  2027.88644  2229.31017
          X               0.82525    -0.52843     0.19932
          Y               0.53936     0.84208    -0.00060
          Z              -0.16752     0.10800     0.97993
   Rotational Symmetry Number is   1
   The Molecule is an Asymmetric Top
   Translational Enthalpy:        0.889 kcal/mol
   Rotational Enthalpy:           0.889 kcal/mol
   Vibrational Enthalpy:        125.139 kcal/mol
   gas constant (RT):             0.593 kcal/mol
   Translational Entropy:        40.457  cal/mol.K
   Rotational Entropy:           29.277  cal/mol.K
   Vibrational Entropy:          18.135  cal/mol.K

   Total Enthalpy:              127.509 kcal/mol
   Total Entropy:                87.869  cal/mol.K

 Total job time:  926.43s(wall), 12919.77s(cpu)
        *  Thank you very much for using Q-Chem.  Have a nice day.  *
