 Q-Chem 5.2 (devel), Q-Chem, Inc., Pleasanton, CA (2019)
 Q-Chem 5.2.2 for Intel X86 EM64T Linux

User input:
--------------------------------------------------------------
$molecule
0 1
C      1.9839655798    2.8343873569   -0.6530035790
C      2.0889665948    1.3399289492   -0.2973932582
C      3.4017166944    0.7321441035   -0.8222227424
C      4.6254659785    1.5200300416   -0.3255741318
C      4.5210827926    3.0122209378   -0.6783481608
C      3.2094896156    3.6188525050   -0.1554554411
H      3.4653882129   -0.3186255299   -0.5134835234
H      2.0538505535    1.2303619181    0.7916336585
H      1.9041773336    2.9373830819   -1.7471760654
H      1.0604862058    3.2447823031   -0.2264495779
H      4.7056113531    1.4098609561    0.7662015896
H      5.5416784391    1.0893334561   -0.7496610014
H      5.3807748665    3.5587419877   -0.2692766409
H      4.5659637339    3.1311627355   -1.7719372538
H      3.2192612515    3.6121018079    0.9447339030
H      3.1260878858    4.6703627905   -0.4590864625
H      3.3863457527    0.7409636912   -1.9242196110
N      0.9315723625    0.5939302253   -0.7942938700
H      0.8024957372    0.5217251348   -1.7968919912
C      0.0000000000    0.0000000000    0.0000000000
H     -0.7899738588   -0.5065817117   -0.5873052394
O     -0.0000000000    0.0000000000    1.2238135054
$end

$rem
JOBTYPE  OPT
METHOD  B3LYP
BASIS  6-31+G(D)
SYMMETRY  FALSE
SYM_IGNORE  TRUE
MEM_TOTAL  8000
MEM_STATIC  2000
MAX_SUB_FILE_NUM  16000
BASIS_LIN_DEP_THRESH  6
THRESH  14
SCF_CONVERGENCE  9
GEN_SCFMAN  TRUE
SCF_GUESS  SAD
FD_MAT_VEC_PROD  FALSE
XC_GRID  000099000590
NL_GRID  1
MAX_SCF_CYCLES  200
GEOM_OPT_TOL_GRADIENT  100
GEOM_OPT_TOL_DISPLACEMENT  100
GEOM_OPT_TOL_ENERGY  10
$end

$multipole_field
Z   0.015558
$end

--------------------------------------------------------------

   16    -404.6196944004      3.63e-10  Convergence criterion met
 Total energy in the final basis set =     -404.6196944004
   12    -404.6203442991      5.77e-10  Convergence criterion met
 Total energy in the final basis set =     -404.6203442991
   11    -404.6204058725      7.49e-10  Convergence criterion met
 Total energy in the final basis set =     -404.6204058725
   10    -404.6204071785      6.57e-10  Convergence criterion met
 Total energy in the final basis set =     -404.6204071785
   10    -404.6204064815      6.37e-10  Convergence criterion met
 Total energy in the final basis set =     -404.6204064815
   10    -404.6204075097      6.61e-10  Convergence criterion met
 Total energy in the final basis set =     -404.6204075097
    8    -404.6204075162      7.93e-10  Convergence criterion met
 Total energy in the final basis set =     -404.6204075162
 Final energy is   -404.620407516166
 **  OPTIMIZATION CONVERGED  **
 Total job time:  294.55s(wall), 4634.76s(cpu)
        *  Thank you very much for using Q-Chem.  Have a nice day.  *

User input: 2 of 2

                  Welcome to Q-Chem
     A Quantum Leap Into The Future Of Chemistry

 Q-Chem 5.2 (devel), Q-Chem, Inc., Pleasanton, CA (2019)

 Yihan Shao,  Zhengting Gan,  E. Epifanovsky,  A. T. B. Gilbert,  M. Wormit,
 J. Kussmann,  A. W. Lange,  A. Behn,  Jia Deng,  Xintian Feng,  D. Ghosh,
 M. Goldey,  P. R. Horn,  L. D. Jacobson,  I. Kaliman,  T. Kus,  A. Landau,
 Jie Liu,  E. I. Proynov,  R. M. Richard,  R. P. Steele,  E. J. Sundstrom,
 H. L. Woodcock III,  P. M. Zimmerman,  D. Zuev,  B. Alam,  B. Albrecht,
 E. Alguire,  S. A. Baeppler,  D. Barton,  Z. Benda,  Y. A. Bernard,
 E. J. Berquist,  K. B. Bravaya,  H. Burton,  K. Carter-Fenk,  D. Casanova,
 Chun-Min Chang,  Yunqing Chen,  A. Chien,  K. D. Closser,  M. P. Coons,
 S. Coriani,  S. Dasgupta,  A. L. Dempwolff,  M. Diedenhofen,  Hainam Do,
 R. G. Edgar,  Po-Tung Fang,  S. Faraji,  S. Fatehi,  Qingguo Feng,
 J. Fosso-Tande,  J. Gayvert,  Qinghui Ge,  A. Ghysels,  G. Gidofalvi,
 J. Gomes,  J. Gonthier,  A. Gunina,  D. Hait,  M. W. D. Hanson-Heine,
 P. H. P. Harbach,  A. W. Hauser,  M. F. Herbst,  J. E. Herr,
 E. G. Hohenstein,  Z. C. Holden,  Kerwin Hui,  B. C. Huynh,  T.-C. Jagau,
 Hyunjun Ji,  B. Kaduk,  K. Khistyaev,  Jaehoon Kim,  P. Klunzinger,  K. Koh,
 D. Kosenkov,  L. Koulias,  T. Kowalczyk,  C. M. Krauter,  A. Kunitsa,
 Ka Un Lao,  A. Laurent,  K. V. Lawler,  Joonho Lee,  D. Lefrancois,
 S. Lehtola,  D. S. Levine,  Yi-Pei Li,  You-Sheng Lin,  Fenglai Liu,
 Kuan-Yu Liu,  E. Livshits,  M. Loipersberger,  A. Luenser,  P. Manohar,
 E. Mansoor,  S. F. Manzer,  Shan-Ping Mao,  Yuezhi Mao,  N. Mardirossian,
 A. V. Marenich,  T. Markovich,  L. A. Martinez-Martinez,  S. A. Maurer,
 N. J. Mayhall,  S. C. McKenzie,  J.-M. Mewes,  P. Morgante,  A. F. Morrison,
 J. W. Mullinax,  K. Nanda,  T. S. Nguyen-Beck,  R. Olivares-Amaya,
 J. A. Parkhill,  S. K. Paul,  F. Pavosevic,  Zheng Pei,  T. M. Perrine,
 F. Plasser,  P. Pokhilko,  S. Prager,  A. Prociuk,  E. Ramos,  B. Rana,
 D. R. Rehn,  F. Rob,  M. Scheurer,  M. Schneider,  N. Sergueev,
 S. M. Sharada,  S. Sharma,  D. W. Small,  T. Stauch,  C. J. Stein,
 T. Stein,  Yu-Chuan Su,  S. P. Veccham,  Zhen Tao,  A. J. W. Thom,
 A. Tkatchenko,  T. Tsuchimochi,  N. M. Tubman,  L. Vogt,  M. L. Vidal,
 O. Vydrov,  M. A. Watson,  J. Wenzel,  M. de Wergifosse,  T. A. Wesolowski,
 A. White,  J. Witte,  A. Yamada,  Jun Yang,  K. Yao,  S. Yeganeh,
 S. R. Yost,  Zhi-Qiang You,  A. Zech,  Igor Ying Zhang,  Xing Zhang,
 Yan Zhao,  Ying Zhu,  B. R. Brooks,  G. K. L. Chan,  C. J. Cramer,
 M. S. Gordon,  W. J. Hehre,  A. Klamt,  M. W. Schmidt,  C. D. Sherrill,
 D. G. Truhlar,  A. Aspuru-Guzik,  R. Baer,  A. T. Bell,  N. A. Besley,
 Jeng-Da Chai,  A. E. DePrince, III,  R. A. DiStasio Jr.,  A. Dreuw,
 B. D. Dunietz,  T. R. Furlani,  Chao-Ping Hsu,  Yousung Jung,  Jing Kong,
 D. S. Lambrecht,  WanZhen Liang,  C. Ochsenfeld,  V. A. Rassolov,
 L. V. Slipchenko,  J. E. Subotnik,  T. Van Voorhis,  J. M. Herbert,
 A. I. Krylov,  P. M. W. Gill,  M. Head-Gordon

 Contributors to earlier versions of Q-Chem not listed above:
 R. D. Adamson,  B. Austin,  J. Baker,  G. J. O. Beran,  K. Brandhorst,
 S. T. Brown,  E. F. C. Byrd,  A. K. Chakraborty,  C.-L. Cheng,
 Siu Hung Chien,  D. M. Chipman,  D. L. Crittenden,  H. Dachsel,
 R. J. Doerksen,  A. D. Dutoi,  L. Fusti-Molnar,  W. A. Goddard III,
 A. Golubeva-Zadorozhnaya,  S. R. Gwaltney,  G. Hawkins,  A. Heyden,
 S. Hirata,  G. Kedziora,  F. J. Keil,  C. Kelley,  Jihan Kim,  R. A. King,
 R. Z. Khaliullin,  P. P. Korambath,  W. Kurlancheek,  A. M. Lee,  M. S. Lee,
 S. V. Levchenko,  Ching Yeh Lin,  D. Liotard,  R. C. Lochan,  I. Lotan,
 P. E. Maslen,  N. Nair,  D. P. O'Neill,  D. Neuhauser,  E. Neuscamman,
 C. M. Oana,  R. Olson,  B. Peters,  R. Peverati,  P. A. Pieniazek,
 Y. M. Rhee,  J. Ritchie,  M. A. Rohrdanz,  E. Rosta,  N. J. Russ,
 H. F. Schaefer III,  N. E. Schultz,  N. Shenvi,  A. C. Simmonett,  A. Sodt,
 D. Stuck,  K. S. Thanthiriwatte,  V. Vanovschi,  Tao Wang,  A. Warshel,
 C. F. Williams,  Q. Wu,  X. Xu,  W. Zhang

 Please cite Q-Chem as follows:
 Y. Shao et al., Mol. Phys. 113, 184-215 (2015)
 DOI: 10.1080/00268976.2014.952696

 Q-Chem 5.2.2 for Intel X86 EM64T Linux

 Parts of Q-Chem use Armadillo 9.800.1 (Horizon Scraper).
 http://arma.sourceforge.net/

 Q-Chem begins on Sun Mar  7 03:01:10 2021

Host: node029
0

     Scratch files written to /home/ymao90/scratch/CCX_CO_-8020210307025612//
The previous job contains 0 fragments, simply inherited here

Checking the input file for inconsistencies... 	...done.

--------------------------------------------------------------
User input:
--------------------------------------------------------------

$molecule
read
$end

$rem
JOBTYPE  FREQ
METHOD  B3LYP
BASIS  6-31+G(D)
SYMMETRY  FALSE
SYM_IGNORE  TRUE
MEM_TOTAL  8000
MEM_STATIC  2000
MAX_SUB_FILE_NUM  16000
BASIS_LIN_DEP_THRESH  6
THRESH  14
SCF_CONVERGENCE  9
GEN_SCFMAN  TRUE
SCF_GUESS  READ
FD_MAT_VEC_PROD  FALSE
XC_GRID  000099000590
IDERIV   1
NL_GRID  1
MAX_SCF_CYCLES  200
ISOTOPES TRUE
$end

$isotopes
1 0
1
 21 2.0141018
$end

$multipole_field
Z   0.015558
$end
--------------------------------------------------------------

 Total energy in the final basis set =     -404.6204078339
   10    -404.6204067291      2.31e-10  Convergence criterion met
 Total energy in the final basis set =     -404.6204067291
    9    -404.6204075954      9.68e-10  Convergence criterion met
 Total energy in the final basis set =     -404.6204075954
   10    -404.6204071737      3.13e-10  Convergence criterion met
 Total energy in the final basis set =     -404.6204071737
    9    -404.6204075417      7.05e-10  Convergence criterion met
 Total energy in the final basis set =     -404.6204075417
   10    -404.6204073135      3.33e-10  Convergence criterion met
 Total energy in the final basis set =     -404.6204073135
   10    -404.6204066470      5.99e-10  Convergence criterion met
 Total energy in the final basis set =     -404.6204066470
   10    -404.6204058105      9.85e-10  Convergence criterion met
 Total energy in the final basis set =     -404.6204058105

                    Orbital Energies (a.u.)
 --------------------------------------------------------------

 Alpha MOs
 -- Occupied --
-19.1306 -14.3678 -10.2902 -10.2249 -10.1869 -10.1843 -10.1795 -10.1779
-10.1763  -1.0345  -0.9290  -0.8244  -0.7416  -0.7410  -0.6348  -0.6111
 -0.5899  -0.5641  -0.5238  -0.4827  -0.4580  -0.4426  -0.4375  -0.4165
 -0.4144  -0.3951  -0.3787  -0.3714  -0.3445  -0.3444  -0.3221  -0.3130
 -0.3089  -0.2660  -0.2566

          Ground-State Mulliken Net Atomic Charges

     Atom                 Charge (a.u.)
  ----------------------------------------
      1 C                    -0.224542
      2 C                    -0.491897
      3 C                    -0.243970
      4 C                    -0.467398
      5 C                    -0.324129
      6 C                    -0.474171
      7 H                     0.203023
      8 H                     0.202500
      9 H                     0.249461
     10 H                     0.196632
     11 H                     0.152141
     12 H                     0.220692
     13 H                     0.178059
     14 H                     0.251662
     15 H                     0.150788
     16 H                     0.213166
     17 H                     0.250505
     18 N                    -0.379658
     19 H                     0.442216
     20 C                     0.310881
     21 H                     0.173262
     22 O                    -0.589222
  ----------------------------------------
  Sum of atomic charges =     0.000000

                    Cartesian Multipole Moments
 -----------------------------------------------------------------
    Charge (ESU x 10^10)
                -0.0000
    Dipole Moment (Debye)
         X       1.9019      Y       1.1748      Z      -7.2641
       Tot       7.6003
    Quadrupole Moments (Debye-Ang)
        XX     -50.8740     XY       3.7260     YY     -54.4794
        XZ      -8.2115     YZ      -5.4225     ZZ     -56.3331

             Standard Nuclear Orientation (Angstroms)
    I     Atom           X                Y                Z
 ----------------------------------------------------------------
    1      C       1.9832949391     2.8319274597    -0.6909047614
    2      C       2.0923167903     1.3407254684    -0.3239212347
    3      C       3.4006067797     0.7355644084    -0.8620505392
    4      C       4.6168399330     1.5110087554    -0.3264801696
    5      C       4.5228971573     3.0120924623    -0.6453227102
    6      C       3.1954242873     3.6132135529    -0.1548817835
    7      H       3.4613408369    -0.3240952499    -0.5833484085
    8      H       2.0785232982     1.2440158720     0.7685125178
    9      H       1.9350523872     2.9386969437    -1.7832211621
   10      H       1.0466189592     3.2425063392    -0.2922170418
   11      H       4.6758070563     1.3722754731     0.7692592895
   12      H       5.5375748741     1.0914225478    -0.7492829742
   13      H       5.3717733246     3.5492875783    -0.1991525938
   14      H       4.6058039593     3.1566153153    -1.7301589793
   15      H       3.1717901855     3.5961034677     0.9510619147
   16      H       3.1211566809     4.6650778026    -0.4578011132
   17      H       3.4009991533     0.7726055623    -1.9601474410
   18      N       0.9232810080     0.5860136409    -0.7816095199
   19      H       0.7759737391     0.4909741157    -1.7829582257
   20      C       0.0162586281     0.0140779036     0.0345232055
   21      H      -0.7845314419    -0.5027860296    -0.5202403228
   22      O       0.0356045494     0.0357433507     1.2749461598
 ----------------------------------------------------------------

 Frequency:        42.25                 107.27                 215.88
 Force Cnst:      0.0050                 0.0241                 0.0896
 Red. Mass:       4.7908                 3.5481                 3.2648
 IR Intens:        7.499                  5.262                 13.211
 Frequency:       223.43                 230.73                 333.43
 Force Cnst:      0.0734                 0.0564                 0.1251
 Red. Mass:       2.4960                 1.7988                 1.9095
 IR Intens:       23.550                  0.974                  0.455
 Frequency:       400.63                 416.33                 454.98
 Force Cnst:      0.3559                 0.3580                 0.2728
 Red. Mass:       3.7636                 3.5057                 2.2369
 IR Intens:        8.759                 14.929                  0.685
 Frequency:       466.30                 535.89                 641.82
 Force Cnst:      0.4523                 0.2752                 0.2750
 Red. Mass:       3.5309                 1.6266                 1.1329
 IR Intens:        6.702                  1.605                 64.119
 Frequency:       747.07                 802.34                 822.61
 Force Cnst:      1.3766                 0.5482                 0.9493
 Red. Mass:       4.1864                 1.4453                 2.3810
 IR Intens:        4.669                  0.023                  1.007
 Frequency:       846.95                 905.65                 920.67
 Force Cnst:      0.8625                 0.9515                 0.9971
 Red. Mass:       2.0407                 1.9689                 1.9966
 IR Intens:        0.883                  7.593                  0.836
 Frequency:       935.28                 967.97                1026.86
 Force Cnst:      0.7470                 1.2874                 0.9913
 Red. Mass:       1.4495                 2.3320                 1.5956
 IR Intens:        0.612                  2.188                  0.158
 Frequency:      1039.18                1072.70                1081.92
 Force Cnst:      1.1521                 0.9529                 2.6110
 Red. Mass:       1.8108                 1.4056                 3.7858
 IR Intens:        0.882                  0.959                 14.426
 Frequency:      1092.76                1101.77                1177.67
 Force Cnst:      0.8498                 1.7251                 1.8925
 Red. Mass:       1.2079                 2.4120                 2.3160
 IR Intens:        0.005                  1.218                  3.141
 Frequency:      1216.75                1241.83                1281.56
 Force Cnst:      1.2486                 1.6288                 1.2516
 Red. Mass:       1.4314                 1.7926                 1.2934
 IR Intens:        0.064                 42.572                  7.490
 Frequency:      1299.89                1302.59                1347.06
 Force Cnst:      1.2870                 1.3792                 1.3754
 Red. Mass:       1.2927                 1.3796                 1.2865
 IR Intens:        1.397                  5.678                  1.861
 Frequency:      1353.18                1373.85                1387.96
 Force Cnst:      1.3400                 1.5228                 1.6789
 Red. Mass:       1.2420                 1.3694                 1.4792
 IR Intens:       17.017                  1.688                 11.713
 Frequency:      1389.65                1397.80                1414.07
 Force Cnst:      1.5264                 1.6885                 1.7270
 Red. Mass:       1.3416                 1.4668                 1.4659
 IR Intens:        0.742                  0.168                  3.203
 Frequency:      1429.40                1503.22                1507.98
 Force Cnst:      1.4788                 1.4475                 1.4579
 Red. Mass:       1.2284                 1.0872                 1.0882
 IR Intens:       36.805                  0.417                  7.747
 Frequency:      1509.37                1513.55                1529.16
 Force Cnst:      1.4702                 1.4729                 1.5103
 Red. Mass:       1.0953                 1.0913                 1.0962
 IR Intens:        6.441                 10.385                  1.689
 Frequency:      1570.59                1716.48                2944.36
 Force Cnst:      2.6558                10.4217                 5.4815
 Red. Mass:       1.8273                 6.0036                 1.0732
 IR Intens:      179.607                461.809                 24.861
 Frequency:      2951.50                3029.94                3030.36
 Force Cnst:      5.5075                 5.8744                 5.7816
 Red. Mass:       1.0730                 1.0860                 1.0686
 IR Intens:      153.420                100.396                 27.002
 Frequency:      3040.28                3042.76                3055.49
 Force Cnst:      5.7746                 5.7942                 5.9656
 Red. Mass:       1.0603                 1.0622                 1.0845
 IR Intens:       22.499                 14.241                 19.371
 Frequency:      3070.42                3076.92                3080.78
 Force Cnst:      6.0413                 6.0802                 6.1807
 Red. Mass:       1.0876                 1.0900                 1.1053
 IR Intens:       48.893                 46.150                 15.071
 Frequency:      3083.49                3090.00                3563.31
 Force Cnst:      6.1412                 6.1954                 8.0717
 Red. Mass:       1.0963                 1.1013                 1.0790
 IR Intens:        6.487                 55.159                 56.148
 Frequency:        42.28                 106.51                 198.12
 Force Cnst:      0.0050                 0.0238                 0.0676
 Red. Mass:       4.7872                 3.5675                 2.9225
 IR Intens:        7.511                  5.160                 23.615
 Frequency:       217.85                 230.46                 333.25
 Force Cnst:      0.1009                 0.0560                 0.1255
 Red. Mass:       3.6096                 1.7889                 1.9179
 IR Intens:        9.489                  0.063                  0.421
 Frequency:       395.52                 407.03                 454.32
 Force Cnst:      0.3532                 0.3832                 0.2881
 Red. Mass:       3.8318                 3.9262                 2.3687
 IR Intens:        8.323                 10.225                  0.676
 Frequency:       460.66                 533.30                 636.19
 Force Cnst:      0.3931                 0.2724                 0.2686
 Red. Mass:       3.1443                 1.6254                 1.1264
 IR Intens:        1.622                  1.344                 73.215
 Frequency:       738.13                 802.33                 820.56
 Force Cnst:      1.3373                 0.5481                 0.9344
 Red. Mass:       4.1660                 1.4452                 2.3555
 IR Intens:        4.471                  0.022                  0.795
 Frequency:       846.03                 864.35                 905.72
 Force Cnst:      0.8752                 1.7944                 0.9475
 Red. Mass:       2.0753                 4.0765                 1.9605
 IR Intens:        1.088                  0.316                  7.525
 Frequency:       918.75                 935.38                 946.13
 Force Cnst:      1.0162                 0.7484                 1.2169
 Red. Mass:       2.0434                 1.4517                 2.3074
 IR Intens:        1.018                  0.627                  2.514
 Frequency:      1025.70                1040.07                1072.00
 Force Cnst:      1.3892                 1.1904                 0.9694
 Red. Mass:       2.2412                 1.8678                 1.4317
 IR Intens:        3.608                  0.754                  0.816
 Frequency:      1092.66                1101.33                1127.42
 Force Cnst:      0.8369                 1.7667                 2.5619
 Red. Mass:       1.1898                 2.4722                 3.4210
 IR Intens:        0.004                  1.046                 18.138
 Frequency:      1181.77                1216.33                1241.91
 Force Cnst:      2.0828                 1.2478                 1.8765
 Red. Mass:       2.5313                 1.4315                 2.0649
 IR Intens:       10.645                  0.025                 34.092
 Frequency:      1280.96                1299.82                1301.63
 Force Cnst:      1.2483                 1.2909                 1.3591
 Red. Mass:       1.2912                 1.2968                 1.3615
 IR Intens:        6.796                  1.441                  3.464
 Frequency:      1346.87                1351.83                1373.81
 Force Cnst:      1.3702                 1.3213                 1.5227
 Red. Mass:       1.2820                 1.2272                 1.3693
 IR Intens:        2.343                 15.010                  1.638
 Frequency:      1387.97                1389.59                1397.78
 Force Cnst:      1.6777                 1.5257                 1.6884
 Red. Mass:       1.4781                 1.3411                 1.4667
 IR Intens:       10.900                  0.703                  0.157
 Frequency:      1413.87                1503.22                1507.98
 Force Cnst:      1.7103                 1.4475                 1.4579
 Red. Mass:       1.4521                 1.0873                 1.0881
 IR Intens:        1.024                  0.421                  7.956
 Frequency:      1509.37                1513.52                1529.13
 Force Cnst:      1.4702                 1.4734                 1.5104
 Red. Mass:       1.0953                 1.0917                 1.0964
 IR Intens:        6.424                 10.094                  1.638
 Frequency:      1563.41                1694.55                2241.45
 Force Cnst:      2.4795                15.3392                 7.1289
 Red. Mass:       1.7217                 9.0666                 2.4083
 IR Intens:      143.173                523.897                 57.707
 Frequency:      2944.36                2951.50                3030.33
 Force Cnst:      5.4815                 5.5075                 5.7718
 Red. Mass:       1.0732                 1.0730                 1.0668
 IR Intens:       24.881                153.546                 59.582
 Frequency:      3040.28                3042.75                3055.43
 Force Cnst:      5.7746                 5.7943                 5.9652
 Red. Mass:       1.0603                 1.0622                 1.0845
 IR Intens:       22.351                 12.670                 23.259
 Frequency:      3070.42                3076.92                3080.78
 Force Cnst:      6.0413                 6.0802                 6.1807
 Red. Mass:       1.0876                 1.0900                 1.1053
 IR Intens:       49.094                 46.216                 15.075
 Frequency:      3083.49                3090.00                3563.27
 Force Cnst:      6.1413                 6.1954                 8.0713
 Red. Mass:       1.0963                 1.1013                 1.0789
 IR Intens:        6.308                 55.578                 56.633

 STANDARD THERMODYNAMIC QUANTITIES AT   298.18 K  AND     1.00 ATM

   This Molecule has  0 Imaginary Frequencies
   Zero point vibrational energy:      122.269 kcal/mol

   Atom    1 Element C  Has Mass   12.00000
   Atom    2 Element C  Has Mass   12.00000
   Atom    3 Element C  Has Mass   12.00000
   Atom    4 Element C  Has Mass   12.00000
   Atom    5 Element C  Has Mass   12.00000
   Atom    6 Element C  Has Mass   12.00000
   Atom    7 Element H  Has Mass    1.00783
   Atom    8 Element H  Has Mass    1.00783
   Atom    9 Element H  Has Mass    1.00783
   Atom   10 Element H  Has Mass    1.00783
   Atom   11 Element H  Has Mass    1.00783
   Atom   12 Element H  Has Mass    1.00783
   Atom   13 Element H  Has Mass    1.00783
   Atom   14 Element H  Has Mass    1.00783
   Atom   15 Element H  Has Mass    1.00783
   Atom   16 Element H  Has Mass    1.00783
   Atom   17 Element H  Has Mass    1.00783
   Atom   18 Element N  Has Mass   14.00307
   Atom   19 Element H  Has Mass    1.00783
   Atom   20 Element C  Has Mass   12.00000
   Atom   21 Element H  Has Mass    2.01410
   Atom   22 Element O  Has Mass   15.99491
   Molecular Mass:   128.106042 amu
   Principal axes and moments of inertia in amu*Bohr^2:
                             1           2           3
    Eigenvalues --      548.89394  2008.00317  2199.48210
          X               0.82430    -0.52582     0.20987
          Y               0.53818     0.84283    -0.00212
          Z              -0.17577     0.11470     0.97773
   Rotational Symmetry Number is   1
   The Molecule is an Asymmetric Top
   Translational Enthalpy:        0.889 kcal/mol
   Rotational Enthalpy:           0.889 kcal/mol
   Vibrational Enthalpy:        126.000 kcal/mol
   gas constant (RT):             0.593 kcal/mol
   Translational Entropy:        40.457  cal/mol.K
   Rotational Entropy:           29.273  cal/mol.K
   Vibrational Entropy:          22.489  cal/mol.K

   Total Enthalpy:              128.370 kcal/mol
   Total Entropy:                92.219  cal/mol.K

 Total job time:  5122.57s(wall), 81044.13s(cpu)
        *  Thank you very much for using Q-Chem.  Have a nice day.  *
