 Q-Chem 5.2 (devel), Q-Chem, Inc., Pleasanton, CA (2019)
 Q-Chem 5.2.2 for Intel X86 EM64T Linux

User input:
--------------------------------------------------------------
$molecule
0 1
C      1.9839655798    2.8343873569   -0.6530035790
C      2.0889665948    1.3399289492   -0.2973932582
C      3.4017166944    0.7321441035   -0.8222227424
C      4.6254659785    1.5200300416   -0.3255741318
C      4.5210827926    3.0122209378   -0.6783481608
C      3.2094896156    3.6188525050   -0.1554554411
H      3.4653882129   -0.3186255299   -0.5134835234
H      2.0538505535    1.2303619181    0.7916336585
H      1.9041773336    2.9373830819   -1.7471760654
H      1.0604862058    3.2447823031   -0.2264495779
H      4.7056113531    1.4098609561    0.7662015896
H      5.5416784391    1.0893334561   -0.7496610014
H      5.3807748665    3.5587419877   -0.2692766409
H      4.5659637339    3.1311627355   -1.7719372538
H      3.2192612515    3.6121018079    0.9447339030
H      3.1260878858    4.6703627905   -0.4590864625
H      3.3863457527    0.7409636912   -1.9242196110
N      0.9315723625    0.5939302253   -0.7942938700
H      0.8024957372    0.5217251348   -1.7968919912
C      0.0000000000    0.0000000000    0.0000000000
H     -0.7899738588   -0.5065817117   -0.5873052394
O     -0.0000000000    0.0000000000    1.2238135054
$end

$rem
JOBTYPE  OPT
METHOD  B3LYP
BASIS  6-31+G(D)
SYMMETRY  FALSE
SYM_IGNORE  TRUE
MEM_TOTAL  8000
MEM_STATIC  2000
MAX_SUB_FILE_NUM  16000
BASIS_LIN_DEP_THRESH  6
THRESH  14
SCF_CONVERGENCE  9
GEN_SCFMAN  TRUE
SCF_GUESS  SAD
FD_MAT_VEC_PROD  FALSE
XC_GRID  000099000590
NL_GRID  1
MAX_SCF_CYCLES  200
GEOM_OPT_TOL_GRADIENT  100
GEOM_OPT_TOL_DISPLACEMENT  100
GEOM_OPT_TOL_ENERGY  10
$end

$multipole_field
Z   0.023337
$end

--------------------------------------------------------------

   16    -404.6437918773      3.79e-10  Convergence criterion met
 Total energy in the final basis set =     -404.6437918773
   12    -404.6453162588      8.68e-10  Convergence criterion met
 Total energy in the final basis set =     -404.6453162588
   12    -404.6454903914      4.87e-10  Convergence criterion met
 Total energy in the final basis set =     -404.6454903914
   11    -404.6454946999      2.69e-10  Convergence criterion met
 Total energy in the final basis set =     -404.6454946999
   10    -404.6454930892      7.69e-10  Convergence criterion met
 Total energy in the final basis set =     -404.6454930892
   10    -404.6454953875      9.17e-10  Convergence criterion met
 Total energy in the final basis set =     -404.6454953875
    9    -404.6454954046      4.31e-10  Convergence criterion met
 Total energy in the final basis set =     -404.6454954046
 Final energy is   -404.645495404633
 **  OPTIMIZATION CONVERGED  **
 Total job time:  300.38s(wall), 4732.98s(cpu)
        *  Thank you very much for using Q-Chem.  Have a nice day.  *

User input: 2 of 2

                  Welcome to Q-Chem
     A Quantum Leap Into The Future Of Chemistry

 Q-Chem 5.2 (devel), Q-Chem, Inc., Pleasanton, CA (2019)

 Yihan Shao,  Zhengting Gan,  E. Epifanovsky,  A. T. B. Gilbert,  M. Wormit,
 J. Kussmann,  A. W. Lange,  A. Behn,  Jia Deng,  Xintian Feng,  D. Ghosh,
 M. Goldey,  P. R. Horn,  L. D. Jacobson,  I. Kaliman,  T. Kus,  A. Landau,
 Jie Liu,  E. I. Proynov,  R. M. Richard,  R. P. Steele,  E. J. Sundstrom,
 H. L. Woodcock III,  P. M. Zimmerman,  D. Zuev,  B. Alam,  B. Albrecht,
 E. Alguire,  S. A. Baeppler,  D. Barton,  Z. Benda,  Y. A. Bernard,
 E. J. Berquist,  K. B. Bravaya,  H. Burton,  K. Carter-Fenk,  D. Casanova,
 Chun-Min Chang,  Yunqing Chen,  A. Chien,  K. D. Closser,  M. P. Coons,
 S. Coriani,  S. Dasgupta,  A. L. Dempwolff,  M. Diedenhofen,  Hainam Do,
 R. G. Edgar,  Po-Tung Fang,  S. Faraji,  S. Fatehi,  Qingguo Feng,
 J. Fosso-Tande,  J. Gayvert,  Qinghui Ge,  A. Ghysels,  G. Gidofalvi,
 J. Gomes,  J. Gonthier,  A. Gunina,  D. Hait,  M. W. D. Hanson-Heine,
 P. H. P. Harbach,  A. W. Hauser,  M. F. Herbst,  J. E. Herr,
 E. G. Hohenstein,  Z. C. Holden,  Kerwin Hui,  B. C. Huynh,  T.-C. Jagau,
 Hyunjun Ji,  B. Kaduk,  K. Khistyaev,  Jaehoon Kim,  P. Klunzinger,  K. Koh,
 D. Kosenkov,  L. Koulias,  T. Kowalczyk,  C. M. Krauter,  A. Kunitsa,
 Ka Un Lao,  A. Laurent,  K. V. Lawler,  Joonho Lee,  D. Lefrancois,
 S. Lehtola,  D. S. Levine,  Yi-Pei Li,  You-Sheng Lin,  Fenglai Liu,
 Kuan-Yu Liu,  E. Livshits,  M. Loipersberger,  A. Luenser,  P. Manohar,
 E. Mansoor,  S. F. Manzer,  Shan-Ping Mao,  Yuezhi Mao,  N. Mardirossian,
 A. V. Marenich,  T. Markovich,  L. A. Martinez-Martinez,  S. A. Maurer,
 N. J. Mayhall,  S. C. McKenzie,  J.-M. Mewes,  P. Morgante,  A. F. Morrison,
 J. W. Mullinax,  K. Nanda,  T. S. Nguyen-Beck,  R. Olivares-Amaya,
 J. A. Parkhill,  S. K. Paul,  F. Pavosevic,  Zheng Pei,  T. M. Perrine,
 F. Plasser,  P. Pokhilko,  S. Prager,  A. Prociuk,  E. Ramos,  B. Rana,
 D. R. Rehn,  F. Rob,  M. Scheurer,  M. Schneider,  N. Sergueev,
 S. M. Sharada,  S. Sharma,  D. W. Small,  T. Stauch,  C. J. Stein,
 T. Stein,  Yu-Chuan Su,  S. P. Veccham,  Zhen Tao,  A. J. W. Thom,
 A. Tkatchenko,  T. Tsuchimochi,  N. M. Tubman,  L. Vogt,  M. L. Vidal,
 O. Vydrov,  M. A. Watson,  J. Wenzel,  M. de Wergifosse,  T. A. Wesolowski,
 A. White,  J. Witte,  A. Yamada,  Jun Yang,  K. Yao,  S. Yeganeh,
 S. R. Yost,  Zhi-Qiang You,  A. Zech,  Igor Ying Zhang,  Xing Zhang,
 Yan Zhao,  Ying Zhu,  B. R. Brooks,  G. K. L. Chan,  C. J. Cramer,
 M. S. Gordon,  W. J. Hehre,  A. Klamt,  M. W. Schmidt,  C. D. Sherrill,
 D. G. Truhlar,  A. Aspuru-Guzik,  R. Baer,  A. T. Bell,  N. A. Besley,
 Jeng-Da Chai,  A. E. DePrince, III,  R. A. DiStasio Jr.,  A. Dreuw,
 B. D. Dunietz,  T. R. Furlani,  Chao-Ping Hsu,  Yousung Jung,  Jing Kong,
 D. S. Lambrecht,  WanZhen Liang,  C. Ochsenfeld,  V. A. Rassolov,
 L. V. Slipchenko,  J. E. Subotnik,  T. Van Voorhis,  J. M. Herbert,
 A. I. Krylov,  P. M. W. Gill,  M. Head-Gordon

 Contributors to earlier versions of Q-Chem not listed above:
 R. D. Adamson,  B. Austin,  J. Baker,  G. J. O. Beran,  K. Brandhorst,
 S. T. Brown,  E. F. C. Byrd,  A. K. Chakraborty,  C.-L. Cheng,
 Siu Hung Chien,  D. M. Chipman,  D. L. Crittenden,  H. Dachsel,
 R. J. Doerksen,  A. D. Dutoi,  L. Fusti-Molnar,  W. A. Goddard III,
 A. Golubeva-Zadorozhnaya,  S. R. Gwaltney,  G. Hawkins,  A. Heyden,
 S. Hirata,  G. Kedziora,  F. J. Keil,  C. Kelley,  Jihan Kim,  R. A. King,
 R. Z. Khaliullin,  P. P. Korambath,  W. Kurlancheek,  A. M. Lee,  M. S. Lee,
 S. V. Levchenko,  Ching Yeh Lin,  D. Liotard,  R. C. Lochan,  I. Lotan,
 P. E. Maslen,  N. Nair,  D. P. O'Neill,  D. Neuhauser,  E. Neuscamman,
 C. M. Oana,  R. Olson,  B. Peters,  R. Peverati,  P. A. Pieniazek,
 Y. M. Rhee,  J. Ritchie,  M. A. Rohrdanz,  E. Rosta,  N. J. Russ,
 H. F. Schaefer III,  N. E. Schultz,  N. Shenvi,  A. C. Simmonett,  A. Sodt,
 D. Stuck,  K. S. Thanthiriwatte,  V. Vanovschi,  Tao Wang,  A. Warshel,
 C. F. Williams,  Q. Wu,  X. Xu,  W. Zhang

 Please cite Q-Chem as follows:
 Y. Shao et al., Mol. Phys. 113, 184-215 (2015)
 DOI: 10.1080/00268976.2014.952696

 Q-Chem 5.2.2 for Intel X86 EM64T Linux

 Parts of Q-Chem use Armadillo 9.800.1 (Horizon Scraper).
 http://arma.sourceforge.net/

 Q-Chem begins on Sun Mar  7 03:01:12 2021

Host: node028
0

     Scratch files written to /home/ymao90/scratch/CCX_CO_-12020210307025610//
The previous job contains 0 fragments, simply inherited here

Checking the input file for inconsistencies... 	...done.

--------------------------------------------------------------
User input:
--------------------------------------------------------------

$molecule
read
$end

$rem
JOBTYPE  FREQ
METHOD  B3LYP
BASIS  6-31+G(D)
SYMMETRY  FALSE
SYM_IGNORE  TRUE
MEM_TOTAL  8000
MEM_STATIC  2000
MAX_SUB_FILE_NUM  16000
BASIS_LIN_DEP_THRESH  6
THRESH  14
SCF_CONVERGENCE  9
GEN_SCFMAN  TRUE
SCF_GUESS  READ
FD_MAT_VEC_PROD  FALSE
XC_GRID  000099000590
IDERIV   1
NL_GRID  1
MAX_SCF_CYCLES  200
ISOTOPES TRUE
$end

$isotopes
1 0
1
 21 2.0141018
$end

$multipole_field
Z   0.023337
$end
--------------------------------------------------------------

 Total energy in the final basis set =     -404.6454960470
   10    -404.6454943000      2.25e-10  Convergence criterion met
 Total energy in the final basis set =     -404.6454943000
    9    -404.6454956184      9.17e-10  Convergence criterion met
 Total energy in the final basis set =     -404.6454956184
   10    -404.6454949269      3.12e-10  Convergence criterion met
 Total energy in the final basis set =     -404.6454949269
    9    -404.6454955064      6.67e-10  Convergence criterion met
 Total energy in the final basis set =     -404.6454955064
   10    -404.6454951228      3.16e-10  Convergence criterion met
 Total energy in the final basis set =     -404.6454951228
   10    -404.6454948437      2.99e-10  Convergence criterion met
 Total energy in the final basis set =     -404.6454948437
   11    -404.6454935380      1.35e-10  Convergence criterion met
 Total energy in the final basis set =     -404.6454935380

                    Orbital Energies (a.u.)
 --------------------------------------------------------------

 Alpha MOs
 -- Occupied --
-19.1348 -14.3666 -10.2911 -10.2222 -10.1857 -10.1816 -10.1733 -10.1708
-10.1701  -1.0337  -0.9274  -0.8204  -0.7376  -0.7363  -0.6316  -0.6059
 -0.5862  -0.5605  -0.5207  -0.4813  -0.4547  -0.4388  -0.4342  -0.4154
 -0.4128  -0.3911  -0.3739  -0.3686  -0.3390  -0.3383  -0.3173  -0.3085
 -0.3048  -0.2699  -0.2560

          Ground-State Mulliken Net Atomic Charges

     Atom                 Charge (a.u.)
  ----------------------------------------
      1 C                    -0.214106
      2 C                    -0.482154
      3 C                    -0.233764
      4 C                    -0.495187
      5 C                    -0.288743
      6 C                    -0.505587
      7 H                     0.201025
      8 H                     0.184513
      9 H                     0.277492
     10 H                     0.191172
     11 H                     0.127026
     12 H                     0.232764
     13 H                     0.168065
     14 H                     0.279175
     15 H                     0.124878
     16 H                     0.221685
     17 H                     0.279449
     18 N                    -0.374548
     19 H                     0.465985
     20 C                     0.295455
     21 H                     0.187318
     22 O                    -0.641913
  ----------------------------------------
  Sum of atomic charges =     0.000000

                    Cartesian Multipole Moments
 -----------------------------------------------------------------
    Charge (ESU x 10^10)
                 0.0000
    Dipole Moment (Debye)
         X       2.0051      Y       1.2322      Z      -9.1242
       Tot       9.4228
    Quadrupole Moments (Debye-Ang)
        XX     -50.5111     XY       3.8981     YY     -54.3634
        XZ     -12.4265     YZ      -8.1615     ZZ     -55.9505

             Standard Nuclear Orientation (Angstroms)
    I     Atom           X                Y                Z
 ----------------------------------------------------------------
    1      C       1.9833715478     2.8320663446    -0.7124083539
    2      C       2.0935104167     1.3426542239    -0.3381153900
    3      C       3.3992731875     0.7376965707    -0.8830034990
    4      C       4.6116109044     1.5055673457    -0.3267663752
    5      C       4.5239080290     3.0112329463    -0.6269931506
    6      C       3.1882927320     3.6110014541    -0.1558837765
    7      H       3.4580003691    -0.3263423668    -0.6206231750
    8      H       2.0918107208     1.2540563389     0.7566122808
    9      H       1.9528824951     2.9399487648    -1.8046766954
   10      H       1.0401159967     3.2440260157    -0.3300255354
   11      H       4.6588859041     1.3516006826     0.7718264993
   12      H       5.5349028285     1.0911040727    -0.7481432369
   13      H       5.3664864469     3.5427615975    -0.1600828928
   14      H       4.6279703300     3.1690870100    -1.7075670890
   15      H       3.1457654034     3.5893189916     0.9539381670
   16      H       3.1198652317     4.6631117359    -0.4586994447
   17      H       3.4081638980     0.7896285665    -1.9798869814
   18      N       0.9177928759     0.5835220579    -0.7733658191
   19      H       0.7581637292     0.4799613173    -1.7745161742
   20      C       0.0262518167     0.0182482209     0.0541461231
   21      H      -0.7800534206    -0.5028689933    -0.4851874023
   22      O       0.0574356422     0.0456838430     1.3040260275
 ----------------------------------------------------------------

 Frequency:        53.74                 110.06                 219.44
 Force Cnst:      0.0081                 0.0252                 0.1015
 Red. Mass:       4.7432                 3.5261                 3.5786
 IR Intens:        8.322                  5.466                 10.792
 Frequency:       231.25                 237.43                 333.55
 Force Cnst:      0.0634                 0.0707                 0.1260
 Red. Mass:       2.0130                 2.1291                 1.9217
 IR Intens:        9.649                 16.353                  0.728
 Frequency:       401.53                 422.79                 458.72
 Force Cnst:      0.3636                 0.3497                 0.2766
 Red. Mass:       3.8280                 3.3208                 2.2307
 IR Intens:        9.230                 12.148                  0.931
 Frequency:       471.23                 537.03                 691.03
 Force Cnst:      0.4597                 0.2769                 0.3198
 Red. Mass:       3.5138                 1.6296                 1.1365
 IR Intens:        7.629                  1.605                 69.799
 Frequency:       746.06                 802.90                 820.74
 Force Cnst:      1.3853                 0.5493                 0.9189
 Red. Mass:       4.2241                 1.4463                 2.3152
 IR Intens:        5.305                  0.003                  1.315
 Frequency:       843.91                 905.47                 920.42
 Force Cnst:      0.8707                 0.9717                 1.0120
 Red. Mass:       2.0750                 2.0116                 2.0276
 IR Intens:        0.796                  7.540                  1.301
 Frequency:       933.01                 966.59                1031.14
 Force Cnst:      0.7342                 1.2759                 0.9956
 Red. Mass:       1.4316                 2.3179                 1.5893
 IR Intens:        0.654                  1.517                  0.163
 Frequency:      1037.76                1073.37                1083.75
 Force Cnst:      1.1545                 0.9554                 2.6749
 Red. Mass:       1.8196                 1.4075                 3.8654
 IR Intens:        0.673                  0.895                 19.189
 Frequency:      1089.75                1099.82                1175.29
 Force Cnst:      0.8462                 1.7147                 1.9085
 Red. Mass:       1.2095                 2.4060                 2.3451
 IR Intens:        0.013                  1.131                  4.674
 Frequency:      1215.17                1250.78                1279.70
 Force Cnst:      1.2291                 1.5900                 1.2420
 Red. Mass:       1.4128                 1.7250                 1.2872
 IR Intens:        0.121                 25.287                  4.974
 Frequency:      1299.85                1303.07                1346.30
 Force Cnst:      1.3027                 1.4192                 1.3715
 Red. Mass:       1.3086                 1.4186                 1.2843
 IR Intens:        0.834                  4.089                  1.919
 Frequency:      1354.64                1369.43                1384.23
 Force Cnst:      1.3527                 1.5136                 1.6734
 Red. Mass:       1.2511                 1.3698                 1.4822
 IR Intens:       15.345                  2.347                 13.513
 Frequency:      1389.56                1399.46                1415.18
 Force Cnst:      1.5236                 1.6825                 1.7073
 Red. Mass:       1.3393                 1.4581                 1.4469
 IR Intens:        0.759                  0.160                 14.878
 Frequency:      1427.12                1499.24                1504.89
 Force Cnst:      1.4949                 1.4445                 1.4493
 Red. Mass:       1.2458                 1.0908                 1.0862
 IR Intens:       51.653                  0.507                 10.252
 Frequency:      1507.57                1510.35                1528.51
 Force Cnst:      1.4632                 1.4711                 1.5063
 Red. Mass:       1.0927                 1.0946                 1.0943
 IR Intens:        8.368                  8.833                  2.908
 Frequency:      1580.93                1688.62                2886.76
 Force Cnst:      2.6699                 9.0441                 5.2696
 Red. Mass:       1.8131                 5.3833                 1.0733
 IR Intens:      161.551                482.756                 43.202
 Frequency:      2897.97                3018.88                3032.90
 Force Cnst:      5.3095                 5.7490                 5.8682
 Red. Mass:       1.0730                 1.0707                 1.0828
 IR Intens:      241.453                 83.611                 38.829
 Frequency:      3041.58                3047.60                3052.44
 Force Cnst:      5.7925                 5.8118                 5.9769
 Red. Mass:       1.0627                 1.0620                 1.0888
 IR Intens:       33.545                 23.841                 38.742
 Frequency:      3073.34                3083.28                3087.31
 Force Cnst:      6.0444                 6.0927                 6.1973
 Red. Mass:       1.0861                 1.0878                 1.1035
 IR Intens:       42.023                 35.305                 10.645
 Frequency:      3090.68                3095.64                3536.79
 Force Cnst:      6.1832                 6.2020                 7.9576
 Red. Mass:       1.0986                 1.0984                 1.0797
 IR Intens:        5.581                 19.268                 86.840
 Frequency:        53.79                 109.26                 209.64
 Force Cnst:      0.0081                 0.0249                 0.0783
 Red. Mass:       4.7395                 3.5449                 3.0233
 IR Intens:        8.321                  5.375                 22.149
 Frequency:       220.60                 233.66                 333.36
 Force Cnst:      0.1015                 0.0578                 0.1264
 Red. Mass:       3.5407                 1.7961                 1.9303
 IR Intens:       10.943                  0.228                  0.684
 Frequency:       396.66                 412.66                 457.41
 Force Cnst:      0.3600                 0.3760                 0.3088
 Red. Mass:       3.8835                 3.7480                 2.5049
 IR Intens:        8.848                  8.977                  0.983
 Frequency:       463.48                 534.48                 688.16
 Force Cnst:      0.3714                 0.2739                 0.3146
 Red. Mass:       2.9348                 1.6273                 1.1277
 IR Intens:        1.553                  1.337                 76.201
 Frequency:       737.36                 802.89                 818.81
 Force Cnst:      1.3505                 0.5493                 0.9048
 Red. Mass:       4.2159                 1.4463                 2.2905
 IR Intens:        5.091                  0.003                  1.056
 Frequency:       843.06                 866.90                 905.52
 Force Cnst:      0.8831                 1.8048                 0.9679
 Red. Mass:       2.1088                 4.0761                 2.0035
 IR Intens:        1.010                  0.490                  7.446
 Frequency:       918.70                 933.10                 946.54
 Force Cnst:      1.0231                 0.7351                 1.2254
 Red. Mass:       2.0574                 1.4329                 2.3214
 IR Intens:        1.307                  0.670                  2.413
 Frequency:      1027.03                1039.12                1072.49
 Force Cnst:      1.3691                 1.2155                 0.9795
 Red. Mass:       2.2030                 1.9107                 1.4453
 IR Intens:        4.126                  1.157                  0.741
 Frequency:      1089.62                1099.35                1127.83
 Force Cnst:      0.8317                 1.7528                 2.6121
 Red. Mass:       1.1890                 2.4616                 3.4854
 IR Intens:        0.015                  0.946                 21.906
 Frequency:      1178.57                1214.71                1247.23
 Force Cnst:      2.0654                 1.2280                 1.8439
 Red. Mass:       2.5237                 1.4126                 2.0118
 IR Intens:       11.792                  0.188                 24.066
 Frequency:      1278.72                1299.76                1301.70
 Force Cnst:      1.2320                 1.3071                 1.3884
 Red. Mass:       1.2788                 1.3132                 1.3907
 IR Intens:        4.949                  0.853                  2.285
 Frequency:      1346.15                1353.18                1369.39
 Force Cnst:      1.3687                 1.3268                 1.5134
 Red. Mass:       1.2819                 1.2298                 1.3697
 IR Intens:        2.090                 15.852                  2.258
 Frequency:      1384.26                1389.49                1399.45
 Force Cnst:      1.6713                 1.5229                 1.6823
 Red. Mass:       1.4804                 1.3388                 1.4580
 IR Intens:       11.829                  0.714                  0.153
 Frequency:      1415.99                1499.23                1504.88
 Force Cnst:      1.6975                 1.4445                 1.4492
 Red. Mass:       1.4369                 1.0908                 1.0861
 IR Intens:        2.340                  0.513                 10.475
 Frequency:      1507.57                1510.33                1528.48
 Force Cnst:      1.4632                 1.4713                 1.5064
 Red. Mass:       1.0927                 1.0948                 1.0944
 IR Intens:        8.351                  8.526                  2.590
 Frequency:      1572.54                1665.74                2258.03
 Force Cnst:      2.4588                15.6293                 7.2195
 Red. Mass:       1.6876                 9.5604                 2.4032
 IR Intens:      118.010                569.469                 41.971
 Frequency:      2886.76                2897.97                3018.88
 Force Cnst:      5.2696                 5.3095                 5.7490
 Red. Mass:       1.0733                 1.0730                 1.0707
 IR Intens:       43.227                241.593                 83.312
 Frequency:      3032.95                3041.58                3047.61
 Force Cnst:      5.8679                 5.7925                 5.8118
 Red. Mass:       1.0827                 1.0627                 1.0621
 IR Intens:       34.985                 33.422                 22.986
 Frequency:      3073.34                3083.28                3087.31
 Force Cnst:      6.0444                 6.0927                 6.1973
 Red. Mass:       1.0861                 1.0878                 1.1035
 IR Intens:       42.256                 35.396                 10.649
 Frequency:      3090.67                3095.64                3536.74
 Force Cnst:      6.1832                 6.2020                 7.9572
 Red. Mass:       1.0987                 1.0984                 1.0797
 IR Intens:        5.487                 19.408                 87.421

 STANDARD THERMODYNAMIC QUANTITIES AT   298.18 K  AND     1.00 ATM

   This Molecule has  0 Imaginary Frequencies
   Zero point vibrational energy:      122.171 kcal/mol

   Atom    1 Element C  Has Mass   12.00000
   Atom    2 Element C  Has Mass   12.00000
   Atom    3 Element C  Has Mass   12.00000
   Atom    4 Element C  Has Mass   12.00000
   Atom    5 Element C  Has Mass   12.00000
   Atom    6 Element C  Has Mass   12.00000
   Atom    7 Element H  Has Mass    1.00783
   Atom    8 Element H  Has Mass    1.00783
   Atom    9 Element H  Has Mass    1.00783
   Atom   10 Element H  Has Mass    1.00783
   Atom   11 Element H  Has Mass    1.00783
   Atom   12 Element H  Has Mass    1.00783
   Atom   13 Element H  Has Mass    1.00783
   Atom   14 Element H  Has Mass    1.00783
   Atom   15 Element H  Has Mass    1.00783
   Atom   16 Element H  Has Mass    1.00783
   Atom   17 Element H  Has Mass    1.00783
   Atom   18 Element N  Has Mass   14.00307
   Atom   19 Element H  Has Mass    1.00783
   Atom   20 Element C  Has Mass   12.00000
   Atom   21 Element H  Has Mass    2.01410
   Atom   22 Element O  Has Mass   15.99491
   Molecular Mass:   128.106042 amu
   Principal axes and moments of inertia in amu*Bohr^2:
                             1           2           3
    Eigenvalues --      553.73820  2003.44618  2190.36288
          X               0.82339    -0.52557     0.21400
          Y               0.53814     0.84286    -0.00057
          Z              -0.18008     0.11563     0.97683
   Rotational Symmetry Number is   1
   The Molecule is an Asymmetric Top
   Translational Enthalpy:        0.889 kcal/mol
   Rotational Enthalpy:           0.889 kcal/mol
   Vibrational Enthalpy:        125.845 kcal/mol
   gas constant (RT):             0.593 kcal/mol
   Translational Entropy:        40.457  cal/mol.K
   Rotational Entropy:           29.276  cal/mol.K
   Vibrational Entropy:          21.702  cal/mol.K

   Total Enthalpy:              128.215 kcal/mol
   Total Entropy:                91.434  cal/mol.K

 Total job time:  5115.39s(wall), 80792.85s(cpu)
        *  Thank you very much for using Q-Chem.  Have a nice day.  *
