 Q-Chem 5.2 (devel), Q-Chem, Inc., Pleasanton, CA (2019)
 Q-Chem 5.2.2 for Intel X86 EM64T Linux

User input:
--------------------------------------------------------------
$molecule
0 1
C      1.9839655798    2.8343873569   -0.6530035790
C      2.0889665948    1.3399289492   -0.2973932582
C      3.4017166944    0.7321441035   -0.8222227424
C      4.6254659785    1.5200300416   -0.3255741318
C      4.5210827926    3.0122209378   -0.6783481608
C      3.2094896156    3.6188525050   -0.1554554411
H      3.4653882129   -0.3186255299   -0.5134835234
H      2.0538505535    1.2303619181    0.7916336585
H      1.9041773336    2.9373830819   -1.7471760654
H      1.0604862058    3.2447823031   -0.2264495779
H      4.7056113531    1.4098609561    0.7662015896
H      5.5416784391    1.0893334561   -0.7496610014
H      5.3807748665    3.5587419877   -0.2692766409
H      4.5659637339    3.1311627355   -1.7719372538
H      3.2192612515    3.6121018079    0.9447339030
H      3.1260878858    4.6703627905   -0.4590864625
H      3.3863457527    0.7409636912   -1.9242196110
N      0.9315723625    0.5939302253   -0.7942938700
H      0.8024957372    0.5217251348   -1.7968919912
C      0.0000000000    0.0000000000    0.0000000000
H     -0.7899738588   -0.5065817117   -0.5873052394
O     -0.0000000000    0.0000000000    1.2238135054
$end

$rem
JOBTYPE  OPT
METHOD  B3LYP
BASIS  6-31+G(D)
SYMMETRY  FALSE
SYM_IGNORE  TRUE
MEM_TOTAL  8000
MEM_STATIC  2000
MAX_SUB_FILE_NUM  16000
BASIS_LIN_DEP_THRESH  6
THRESH  14
SCF_CONVERGENCE  9
GEN_SCFMAN  TRUE
SCF_GUESS  SAD
FD_MAT_VEC_PROD  FALSE
XC_GRID  000099000590
NL_GRID  1
MAX_SCF_CYCLES  200
GEOM_OPT_TOL_GRADIENT  100
GEOM_OPT_TOL_DISPLACEMENT  100
GEOM_OPT_TOL_ENERGY  10
SOLVENT_METHOD       PCM
$end

$PCM
THEORY                     CPCM
METHOD                     SWIG
SOLVER                     INVERSION
HPOINTS                    302
HEAVYPOINTS                302
$END

$SOLVENT
DIELECTRIC                 62.0
$END

$multipole_field
Z   0.003890
$end

--------------------------------------------------------------

   15    -404.6104582453      4.36e-10  Convergence criterion met
 Total energy in the final basis set =     -404.6104582453
   13    -404.6113722678      4.52e-10  Convergence criterion met
 Total energy in the final basis set =     -404.6113722678
   13    -404.6114947054      4.56e-10  Convergence criterion met
 Total energy in the final basis set =     -404.6114947054
   13    -404.6114754519      4.63e-10  Convergence criterion met
 Total energy in the final basis set =     -404.6114754519
   13    -404.6114991203      4.59e-10  Convergence criterion met
 Total energy in the final basis set =     -404.6114991203
   13    -404.6114992030      4.58e-10  Convergence criterion met
 Total energy in the final basis set =     -404.6114992030
 Final energy is   -404.611499203004
 **  OPTIMIZATION CONVERGED  **
 Total job time:  467.03s(wall), 6707.27s(cpu)
        *  Thank you very much for using Q-Chem.  Have a nice day.  *

User input: 2 of 2

                  Welcome to Q-Chem
     A Quantum Leap Into The Future Of Chemistry

 Q-Chem 5.2 (devel), Q-Chem, Inc., Pleasanton, CA (2019)

 Yihan Shao,  Zhengting Gan,  E. Epifanovsky,  A. T. B. Gilbert,  M. Wormit,
 J. Kussmann,  A. W. Lange,  A. Behn,  Jia Deng,  Xintian Feng,  D. Ghosh,
 M. Goldey,  P. R. Horn,  L. D. Jacobson,  I. Kaliman,  T. Kus,  A. Landau,
 Jie Liu,  E. I. Proynov,  R. M. Richard,  R. P. Steele,  E. J. Sundstrom,
 H. L. Woodcock III,  P. M. Zimmerman,  D. Zuev,  B. Alam,  B. Albrecht,
 E. Alguire,  S. A. Baeppler,  D. Barton,  Z. Benda,  Y. A. Bernard,
 E. J. Berquist,  K. B. Bravaya,  H. Burton,  K. Carter-Fenk,  D. Casanova,
 Chun-Min Chang,  Yunqing Chen,  A. Chien,  K. D. Closser,  M. P. Coons,
 S. Coriani,  S. Dasgupta,  A. L. Dempwolff,  M. Diedenhofen,  Hainam Do,
 R. G. Edgar,  Po-Tung Fang,  S. Faraji,  S. Fatehi,  Qingguo Feng,
 J. Fosso-Tande,  J. Gayvert,  Qinghui Ge,  A. Ghysels,  G. Gidofalvi,
 J. Gomes,  J. Gonthier,  A. Gunina,  D. Hait,  M. W. D. Hanson-Heine,
 P. H. P. Harbach,  A. W. Hauser,  M. F. Herbst,  J. E. Herr,
 E. G. Hohenstein,  Z. C. Holden,  Kerwin Hui,  B. C. Huynh,  T.-C. Jagau,
 Hyunjun Ji,  B. Kaduk,  K. Khistyaev,  Jaehoon Kim,  P. Klunzinger,  K. Koh,
 D. Kosenkov,  L. Koulias,  T. Kowalczyk,  C. M. Krauter,  A. Kunitsa,
 Ka Un Lao,  A. Laurent,  K. V. Lawler,  Joonho Lee,  D. Lefrancois,
 S. Lehtola,  D. S. Levine,  Yi-Pei Li,  You-Sheng Lin,  Fenglai Liu,
 Kuan-Yu Liu,  E. Livshits,  M. Loipersberger,  A. Luenser,  P. Manohar,
 E. Mansoor,  S. F. Manzer,  Shan-Ping Mao,  Yuezhi Mao,  N. Mardirossian,
 A. V. Marenich,  T. Markovich,  L. A. Martinez-Martinez,  S. A. Maurer,
 N. J. Mayhall,  S. C. McKenzie,  J.-M. Mewes,  P. Morgante,  A. F. Morrison,
 J. W. Mullinax,  K. Nanda,  T. S. Nguyen-Beck,  R. Olivares-Amaya,
 J. A. Parkhill,  S. K. Paul,  F. Pavosevic,  Zheng Pei,  T. M. Perrine,
 F. Plasser,  P. Pokhilko,  S. Prager,  A. Prociuk,  E. Ramos,  B. Rana,
 D. R. Rehn,  F. Rob,  M. Scheurer,  M. Schneider,  N. Sergueev,
 S. M. Sharada,  S. Sharma,  D. W. Small,  T. Stauch,  C. J. Stein,
 T. Stein,  Yu-Chuan Su,  S. P. Veccham,  Zhen Tao,  A. J. W. Thom,
 A. Tkatchenko,  T. Tsuchimochi,  N. M. Tubman,  L. Vogt,  M. L. Vidal,
 O. Vydrov,  M. A. Watson,  J. Wenzel,  M. de Wergifosse,  T. A. Wesolowski,
 A. White,  J. Witte,  A. Yamada,  Jun Yang,  K. Yao,  S. Yeganeh,
 S. R. Yost,  Zhi-Qiang You,  A. Zech,  Igor Ying Zhang,  Xing Zhang,
 Yan Zhao,  Ying Zhu,  B. R. Brooks,  G. K. L. Chan,  C. J. Cramer,
 M. S. Gordon,  W. J. Hehre,  A. Klamt,  M. W. Schmidt,  C. D. Sherrill,
 D. G. Truhlar,  A. Aspuru-Guzik,  R. Baer,  A. T. Bell,  N. A. Besley,
 Jeng-Da Chai,  A. E. DePrince, III,  R. A. DiStasio Jr.,  A. Dreuw,
 B. D. Dunietz,  T. R. Furlani,  Chao-Ping Hsu,  Yousung Jung,  Jing Kong,
 D. S. Lambrecht,  WanZhen Liang,  C. Ochsenfeld,  V. A. Rassolov,
 L. V. Slipchenko,  J. E. Subotnik,  T. Van Voorhis,  J. M. Herbert,
 A. I. Krylov,  P. M. W. Gill,  M. Head-Gordon

 Contributors to earlier versions of Q-Chem not listed above:
 R. D. Adamson,  B. Austin,  J. Baker,  G. J. O. Beran,  K. Brandhorst,
 S. T. Brown,  E. F. C. Byrd,  A. K. Chakraborty,  C.-L. Cheng,
 Siu Hung Chien,  D. M. Chipman,  D. L. Crittenden,  H. Dachsel,
 R. J. Doerksen,  A. D. Dutoi,  L. Fusti-Molnar,  W. A. Goddard III,
 A. Golubeva-Zadorozhnaya,  S. R. Gwaltney,  G. Hawkins,  A. Heyden,
 S. Hirata,  G. Kedziora,  F. J. Keil,  C. Kelley,  Jihan Kim,  R. A. King,
 R. Z. Khaliullin,  P. P. Korambath,  W. Kurlancheek,  A. M. Lee,  M. S. Lee,
 S. V. Levchenko,  Ching Yeh Lin,  D. Liotard,  R. C. Lochan,  I. Lotan,
 P. E. Maslen,  N. Nair,  D. P. O'Neill,  D. Neuhauser,  E. Neuscamman,
 C. M. Oana,  R. Olson,  B. Peters,  R. Peverati,  P. A. Pieniazek,
 Y. M. Rhee,  J. Ritchie,  M. A. Rohrdanz,  E. Rosta,  N. J. Russ,
 H. F. Schaefer III,  N. E. Schultz,  N. Shenvi,  A. C. Simmonett,  A. Sodt,
 D. Stuck,  K. S. Thanthiriwatte,  V. Vanovschi,  Tao Wang,  A. Warshel,
 C. F. Williams,  Q. Wu,  X. Xu,  W. Zhang

 Please cite Q-Chem as follows:
 Y. Shao et al., Mol. Phys. 113, 184-215 (2015)
 DOI: 10.1080/00268976.2014.952696

 Q-Chem 5.2.2 for Intel X86 EM64T Linux

 Parts of Q-Chem use Armadillo 9.800.1 (Horizon Scraper).
 http://arma.sourceforge.net/

 Q-Chem begins on Sun Aug  8 22:33:04 2021

Host: node028
0

     Scratch files written to /home/ymao90/scratch/CCX_CO_-20_GLY_6220210808222510//
The previous job contains 0 fragments, simply inherited here
Symmetry turned off for PCM/SM12/SMD calculation

Checking the input file for inconsistencies... 	...done.

--------------------------------------------------------------
User input:
--------------------------------------------------------------

$molecule
read
$end

$rem
JOBTYPE  FREQ
METHOD  B3LYP
BASIS  6-31+G(D)
SYMMETRY  FALSE
SYM_IGNORE  TRUE
MEM_TOTAL  8000
MEM_STATIC  2000
MAX_SUB_FILE_NUM  16000
BASIS_LIN_DEP_THRESH  6
THRESH  14
SCF_CONVERGENCE  9
GEN_SCFMAN  TRUE
SCF_GUESS  READ
FD_MAT_VEC_PROD  FALSE
XC_GRID  000099000590
IDERIV   1
NL_GRID  1
MAX_SCF_CYCLES  200
ISOTOPES TRUE
SOLVENT_METHOD       PCM
$end

$PCM
THEORY                     CPCM
METHOD                     SWIG
SOLVER                     INVERSION
HPOINTS                    302
HEAVYPOINTS                302
$END

$SOLVENT
DIELECTRIC                 62.0
$END

$isotopes
1 0
1
 21 2.0141018
$end

$multipole_field
Z   0.003890
$end
--------------------------------------------------------------

   13    -404.6114992030      4.58e-10  Convergence criterion met
 Total energy in the final basis set =     -404.6114992030
 Total energy in the final basis set =     -404.6114991379
   13    -404.6114987622      4.58e-10  Convergence criterion met
 Total energy in the final basis set =     -404.6114987622
   13    -404.6114990954      4.58e-10  Convergence criterion met
 Total energy in the final basis set =     -404.6114990954
   13    -404.6114990565      4.59e-10  Convergence criterion met
 Total energy in the final basis set =     -404.6114990565
   13    -404.6114991334      4.58e-10  Convergence criterion met
 Total energy in the final basis set =     -404.6114991334
   13    -404.6114991049      4.58e-10  Convergence criterion met
 Total energy in the final basis set =     -404.6114991049
   13    -404.6114981577      4.60e-10  Convergence criterion met
 Total energy in the final basis set =     -404.6114981577
   13    -404.6114978158      4.57e-10  Convergence criterion met
 Total energy in the final basis set =     -404.6114978158

                    Orbital Energies (a.u.)
 --------------------------------------------------------------

 Alpha MOs
 -- Occupied --
-19.1373 -14.3701 -10.2938 -10.2238 -10.1785 -10.1778 -10.1776 -10.1771
-10.1728  -1.0387  -0.9317  -0.8213  -0.7399  -0.7374  -0.6342  -0.6076
 -0.5891  -0.5605  -0.5241  -0.4829  -0.4587  -0.4391  -0.4348  -0.4183
 -0.4166  -0.3923  -0.3752  -0.3716  -0.3435  -0.3398  -0.3181  -0.3086
 -0.3065  -0.2736  -0.2601

          Ground-State Mulliken Net Atomic Charges

     Atom                 Charge (a.u.)
  ----------------------------------------
      1 C                    -0.259741
      2 C                    -0.435752
      3 C                    -0.278353
      4 C                    -0.464717
      5 C                    -0.363752
      6 C                    -0.469452
      7 H                     0.206782
      8 H                     0.208068
      9 H                     0.236234
     10 H                     0.203144
     11 H                     0.186376
     12 H                     0.211743
     13 H                     0.192541
     14 H                     0.224886
     15 H                     0.185761
     16 H                     0.209026
     17 H                     0.236719
     18 N                    -0.377708
     19 H                     0.470201
     20 C                     0.343335
     21 H                     0.196941
     22 O                    -0.662282
  ----------------------------------------
  Sum of atomic charges =     0.000000

                    Cartesian Multipole Moments
 -----------------------------------------------------------------
    Charge (ESU x 10^10)
                 0.0000
    Dipole Moment (Debye)
         X       2.3366      Y       1.5131      Z      -6.7530
       Tot       7.3042
    Quadrupole Moments (Debye-Ang)
        XX     -50.2109     XY       4.3116     YY     -54.1416
        XZ      -4.2531     YZ      -2.8596     ZZ     -56.8245

             Standard Nuclear Orientation (Angstroms)
    I     Atom           X                Y                Z
 ----------------------------------------------------------------
    1      C       1.9831500673     2.8320269974    -0.6541029584
    2      C       2.0945695937     1.3413028187    -0.2862505397
    3      C       3.4008337468     0.7315857968    -0.8243879121
    4      C       4.6246768659     1.5190067754    -0.3269706968
    5      C       4.5198245169     3.0117611263    -0.6780216825
    6      C       3.2074499681     3.6184091980    -0.1562765984
    7      H       3.4678790586    -0.3209731241    -0.5204110662
    8      H       2.0764860010     1.2408444315     0.8044967314
    9      H       1.9076918374     2.9225385038    -1.7469085523
   10      H       1.0581092148     3.2461068092    -0.2321712957
   11      H       4.7063500559     1.4068485521     0.7665433787
   12      H       5.5377513037     1.0895911619    -0.7580915918
   13      H       5.3796102931     3.5585903529    -0.2677895746
   14      H       4.5626846309     3.1295722611    -1.7698793740
   15      H       3.2166562519     3.6132953801     0.9460464320
   16      H       3.1222587949     4.6674291875    -0.4672895197
   17      H       3.3751491676     0.7485023701    -1.9232119082
   18      N       0.9323992779     0.5936428634    -0.7778001557
   19      H       0.8102107064     0.5251573739    -1.7848785561
   20      C       0.0024584344     0.0038859920    -0.0149267584
   21      H      -0.7805116521    -0.4962531034    -0.6053335063
   22      O      -0.0212810502    -0.0098049840     1.2322198112
 ----------------------------------------------------------------

 Frequency:        30.87                 102.99                 206.08
 Force Cnst:      0.0027                 0.0223                 0.0598
 Red. Mass:       4.8265                 3.5618                 2.3915
 IR Intens:       14.780                  8.909                 50.687
 Frequency:       215.64                 227.22                 333.31
 Force Cnst:      0.0943                 0.0544                 0.1240
 Red. Mass:       3.4437                 1.7872                 1.8950
 IR Intens:       17.414                  0.128                  0.257
 Frequency:       397.35                 414.98                 452.29
 Force Cnst:      0.3397                 0.3550                 0.2717
 Red. Mass:       3.6516                 3.4987                 2.2546
 IR Intens:       12.604                 26.364                  0.839
 Frequency:       467.98                 531.81                 642.00
 Force Cnst:      0.4822                 0.2681                 0.2780
 Red. Mass:       3.7371                 1.6092                 1.1447
 IR Intens:       13.985                  2.350                115.640
 Frequency:       743.89                 799.50                 821.08
 Force Cnst:      1.3770                 0.5430                 0.9513
 Red. Mass:       4.2234                 1.4417                 2.3949
 IR Intens:        6.871                  0.128                  1.141
 Frequency:       848.45                 901.84                 916.71
 Force Cnst:      0.8510                 0.8816                 0.9725
 Red. Mass:       2.0065                 1.8398                 1.9642
 IR Intens:        2.850                 17.439                  1.462
 Frequency:       934.90                 964.17                1031.09
 Force Cnst:      0.7744                 1.2839                 0.9924
 Red. Mass:       1.5038                 2.3440                 1.5843
 IR Intens:        0.566                  6.313                  0.019
 Frequency:      1035.09                1064.00                1071.78
 Force Cnst:      1.1129                 0.9243                 2.5466
 Red. Mass:       1.7631                 1.3857                 3.7627
 IR Intens:        2.383                  2.238                 27.052
 Frequency:      1089.47                1103.20                1174.32
 Force Cnst:      0.8137                 1.7450                 1.9059
 Red. Mass:       1.1635                 2.4336                 2.3458
 IR Intens:        0.001                  1.980                  8.017
 Frequency:      1209.32                1251.25                1274.26
 Force Cnst:      1.2718                 1.5394                 1.2528
 Red. Mass:       1.4760                 1.6688                 1.3095
 IR Intens:        0.794                 35.888                 13.149
 Frequency:      1289.08                1299.73                1341.87
 Force Cnst:      1.2452                 1.4518                 1.3615
 Red. Mass:       1.2718                 1.4586                 1.2833
 IR Intens:        1.883                 11.764                  1.726
 Frequency:      1343.99                1372.88                1383.28
 Force Cnst:      1.3107                 1.5343                 1.5442
 Red. Mass:       1.2316                 1.3816                 1.3697
 IR Intens:       12.952                  1.823                  0.565
 Frequency:      1385.20                1385.75                1405.43
 Force Cnst:      1.6881                 1.6871                 1.7196
 Red. Mass:       1.4932                 1.4911                 1.4776
 IR Intens:       15.082                  0.605                  1.701
 Frequency:      1421.53                1493.65                1495.76
 Force Cnst:      1.5203                 1.4303                 1.4303
 Red. Mass:       1.2769                 1.0881                 1.0850
 IR Intens:      109.434                  0.188                  7.288
 Frequency:      1498.76                1500.14                1512.21
 Force Cnst:      1.4547                 1.4524                 1.4823
 Red. Mass:       1.0991                 1.0954                 1.1001
 IR Intens:        7.594                 10.118                  0.633
 Frequency:      1571.32                1670.86                2992.74
 Force Cnst:      2.7462                 8.0701                 5.6477
 Red. Mass:       1.8878                 4.9062                 1.0703
 IR Intens:      312.944                825.091                 35.338
 Frequency:      2995.01                3028.68                3031.84
 Force Cnst:      5.6599                 5.7328                 5.7408
 Red. Mass:       1.0709                 1.0607                 1.0600
 IR Intens:      147.216                 59.191                 37.142
 Frequency:      3034.87                3053.39                3063.18
 Force Cnst:      5.7616                 5.9735                 6.0681
 Red. Mass:       1.0617                 1.0875                 1.0976
 IR Intens:       35.848                 95.202                 90.872
 Frequency:      3064.75                3066.26                3070.85
 Force Cnst:      6.0415                 6.0544                 6.0889
 Red. Mass:       1.0917                 1.0930                 1.0959
 IR Intens:       80.378                 65.284                104.790
 Frequency:      3073.34                3087.74                3565.40
 Force Cnst:      6.1503                 6.1456                 8.0814
 Red. Mass:       1.1052                 1.0940                 1.0790
 IR Intens:       27.425                123.451                101.103
 Frequency:        30.86                 102.29                 185.06
 Force Cnst:      0.0027                 0.0221                 0.0581
 Red. Mass:       4.8278                 3.5812                 2.8788
 IR Intens:       14.797                  8.671                 45.180
 Frequency:       214.71                 227.22                 333.11
 Force Cnst:      0.0995                 0.0544                 0.1245
 Red. Mass:       3.6638                 1.7869                 1.9046
 IR Intens:       12.622                  0.115                  0.230
 Frequency:       392.44                 407.14                 452.01
 Force Cnst:      0.3373                 0.3774                 0.2758
 Red. Mass:       3.7171                 3.8642                 2.2907
 IR Intens:       11.971                 18.643                  0.877
 Frequency:       461.62                 529.31                 636.59
 Force Cnst:      0.4402                 0.2655                 0.2703
 Red. Mass:       3.5063                 1.6083                 1.1320
 IR Intens:        4.027                  1.922                132.697
 Frequency:       734.54                 799.50                 819.09
 Force Cnst:      1.3313                 0.5429                 0.9384
 Red. Mass:       4.1878                 1.4417                 2.3740
 IR Intens:        6.586                  0.126                  0.851
 Frequency:       847.50                 865.59                 901.88
 Force Cnst:      0.8625                 1.7786                 0.8791
 Red. Mass:       2.0381                 4.0291                 1.8343
 IR Intens:        3.387                  1.281                 17.211
 Frequency:       914.63                 934.98                 942.82
 Force Cnst:      1.0037                 0.7756                 1.1924
 Red. Mass:       2.0363                 1.5059                 2.2767
 IR Intens:        2.157                  0.659                  6.629
 Frequency:      1022.44                1035.72                1062.99
 Force Cnst:      1.4125                 1.1445                 0.9394
 Red. Mass:       2.2933                 1.8108                 1.4110
 IR Intens:        8.904                  1.638                  2.011
 Frequency:      1089.42                1102.68                1119.74
 Force Cnst:      0.8077                 1.7732                 2.4769
 Red. Mass:       1.1550                 2.4751                 3.3530
 IR Intens:        0.001                  1.741                 31.007
 Frequency:      1177.87                1208.79                1251.18
 Force Cnst:      2.0642                 1.2713                 1.8119
 Red. Mass:       2.5252                 1.4767                 1.9644
 IR Intens:       19.561                  0.658                 32.448
 Frequency:      1273.43                1289.07                1297.81
 Force Cnst:      1.2428                 1.2452                 1.4245
 Red. Mass:       1.3008                 1.2719                 1.4354
 IR Intens:       10.689                  1.851                  6.768
 Frequency:      1341.64                1342.88                1372.83
 Force Cnst:      1.3464                 1.3025                 1.5341
 Red. Mass:       1.2696                 1.2259                 1.3815
 IR Intens:        3.459                  9.608                  1.737
 Frequency:      1383.21                1385.22                1385.75
 Force Cnst:      1.5433                 1.6867                 1.6868
 Red. Mass:       1.3691                 1.4919                 1.4908
 IR Intens:        0.500                 13.449                  0.598
 Frequency:      1405.09                1493.65                1495.76
 Force Cnst:      1.7058                 1.4303                 1.4302
 Red. Mass:       1.4665                 1.0881                 1.0850
 IR Intens:        0.125                  0.191                  7.308
 Frequency:      1498.75                1500.14                1512.18
 Force Cnst:      1.4546                 1.4524                 1.4824
 Red. Mass:       1.0991                 1.0954                 1.1003
 IR Intens:        7.569                  9.937                  0.729
 Frequency:      1564.10                1646.00                2257.03
 Force Cnst:      2.5240                14.0637                 7.1895
 Red. Mass:       1.7511                 8.8103                 2.3954
 IR Intens:      236.513                984.117                 78.147
 Frequency:      2992.74                2995.01                3028.68
 Force Cnst:      5.6477                 5.6599                 5.7328
 Red. Mass:       1.0703                 1.0709                 1.0607
 IR Intens:       35.286                146.620                 59.027
 Frequency:      3031.84                3034.87                3063.15
 Force Cnst:      5.7408                 5.7615                 6.0683
 Red. Mass:       1.0600                 1.0617                 1.0977
 IR Intens:       37.153                 37.721                 99.075
 Frequency:      3064.72                3066.23                3070.84
 Force Cnst:      6.0407                 6.0546                 6.0889
 Red. Mass:       1.0916                 1.0930                 1.0959
 IR Intens:       79.507                 64.472                102.594
 Frequency:      3073.34                3087.69                3565.36
 Force Cnst:      6.1503                 6.1457                 8.0810
 Red. Mass:       1.1052                 1.0941                 1.0790
 IR Intens:       27.447                128.417                101.901

 STANDARD THERMODYNAMIC QUANTITIES AT   298.18 K  AND     1.00 ATM

   This Molecule has  0 Imaginary Frequencies
   Zero point vibrational energy:      121.975 kcal/mol

   Atom    1 Element C  Has Mass   12.00000
   Atom    2 Element C  Has Mass   12.00000
   Atom    3 Element C  Has Mass   12.00000
   Atom    4 Element C  Has Mass   12.00000
   Atom    5 Element C  Has Mass   12.00000
   Atom    6 Element C  Has Mass   12.00000
   Atom    7 Element H  Has Mass    1.00783
   Atom    8 Element H  Has Mass    1.00783
   Atom    9 Element H  Has Mass    1.00783
   Atom   10 Element H  Has Mass    1.00783
   Atom   11 Element H  Has Mass    1.00783
   Atom   12 Element H  Has Mass    1.00783
   Atom   13 Element H  Has Mass    1.00783
   Atom   14 Element H  Has Mass    1.00783
   Atom   15 Element H  Has Mass    1.00783
   Atom   16 Element H  Has Mass    1.00783
   Atom   17 Element H  Has Mass    1.00783
   Atom   18 Element N  Has Mass   14.00307
   Atom   19 Element H  Has Mass    1.00783
   Atom   20 Element C  Has Mass   12.00000
   Atom   21 Element H  Has Mass    2.01410
   Atom   22 Element O  Has Mass   15.99491
   Molecular Mass:   128.106042 amu
   Principal axes and moments of inertia in amu*Bohr^2:
                             1           2           3
    Eigenvalues --      540.29717  2024.31616  2223.41233
          X               0.82461    -0.52888     0.20076
          Y               0.53967     0.84188     0.00119
          Z              -0.16965     0.10737     0.97964
   Rotational Symmetry Number is   1
   The Molecule is an Asymmetric Top
   Translational Enthalpy:        0.889 kcal/mol
   Rotational Enthalpy:           0.889 kcal/mol
   Vibrational Enthalpy:        125.757 kcal/mol
   gas constant (RT):             0.593 kcal/mol
   Translational Entropy:        40.457  cal/mol.K
   Rotational Entropy:           29.277  cal/mol.K
   Vibrational Entropy:          23.423  cal/mol.K

   Total Enthalpy:              128.127 kcal/mol
   Total Entropy:                93.156  cal/mol.K

 Total job time:  9604.75s(wall), 137801.14s(cpu)
        *  Thank you very much for using Q-Chem.  Have a nice day.  *
