 Q-Chem 5.2 (devel), Q-Chem, Inc., Pleasanton, CA (2019)
 Q-Chem 5.2.2 for Intel X86 EM64T Linux

User input:
--------------------------------------------------------------
$molecule
0 1
C      1.9839655798    2.8343873569   -0.6530035790
C      2.0889665948    1.3399289492   -0.2973932582
C      3.4017166944    0.7321441035   -0.8222227424
C      4.6254659785    1.5200300416   -0.3255741318
C      4.5210827926    3.0122209378   -0.6783481608
C      3.2094896156    3.6188525050   -0.1554554411
H      3.4653882129   -0.3186255299   -0.5134835234
H      2.0538505535    1.2303619181    0.7916336585
H      1.9041773336    2.9373830819   -1.7471760654
H      1.0604862058    3.2447823031   -0.2264495779
H      4.7056113531    1.4098609561    0.7662015896
H      5.5416784391    1.0893334561   -0.7496610014
H      5.3807748665    3.5587419877   -0.2692766409
H      4.5659637339    3.1311627355   -1.7719372538
H      3.2192612515    3.6121018079    0.9447339030
H      3.1260878858    4.6703627905   -0.4590864625
H      3.3863457527    0.7409636912   -1.9242196110
N      0.9315723625    0.5939302253   -0.7942938700
H      0.8024957372    0.5217251348   -1.7968919912
C      0.0000000000    0.0000000000    0.0000000000
H     -0.7899738588   -0.5065817117   -0.5873052394
O     -0.0000000000    0.0000000000    1.2238135054
$end

$rem
JOBTYPE  OPT
METHOD  B3LYP
BASIS  6-31+G(D)
SYMMETRY  FALSE
SYM_IGNORE  TRUE
MEM_TOTAL  8000
MEM_STATIC  2000
MAX_SUB_FILE_NUM  16000
BASIS_LIN_DEP_THRESH  6
THRESH  14
SCF_CONVERGENCE  9
GEN_SCFMAN  TRUE
SCF_GUESS  SAD
FD_MAT_VEC_PROD  FALSE
XC_GRID  000099000590
NL_GRID  1
MAX_SCF_CYCLES  200
GEOM_OPT_TOL_GRADIENT  100
GEOM_OPT_TOL_DISPLACEMENT  100
GEOM_OPT_TOL_ENERGY  10
$end

$multipole_field
Z   0.027227
$end

--------------------------------------------------------------

   15    -404.6578024230      9.70e-10  Convergence criterion met
 Total energy in the final basis set =     -404.6578024230
   13    -404.6599202675      2.17e-10  Convergence criterion met
 Total energy in the final basis set =     -404.6599202675
   12    -404.6601888783      6.36e-10  Convergence criterion met
 Total energy in the final basis set =     -404.6601888783
   11    -404.6601963391      3.91e-10  Convergence criterion met
 Total energy in the final basis set =     -404.6601963391
   11    -404.6601929043      3.75e-10  Convergence criterion met
 Total energy in the final basis set =     -404.6601929043
   11    -404.6601978162      2.20e-10  Convergence criterion met
 Total energy in the final basis set =     -404.6601978162
    9    -404.6601978505      7.21e-10  Convergence criterion met
 Total energy in the final basis set =     -404.6601978505
 Final energy is   -404.660197850496
 **  OPTIMIZATION CONVERGED  **
 Total job time:  305.66s(wall), 4810.98s(cpu)
        *  Thank you very much for using Q-Chem.  Have a nice day.  *

User input: 2 of 2

                  Welcome to Q-Chem
     A Quantum Leap Into The Future Of Chemistry

 Q-Chem 5.2 (devel), Q-Chem, Inc., Pleasanton, CA (2019)

 Yihan Shao,  Zhengting Gan,  E. Epifanovsky,  A. T. B. Gilbert,  M. Wormit,
 J. Kussmann,  A. W. Lange,  A. Behn,  Jia Deng,  Xintian Feng,  D. Ghosh,
 M. Goldey,  P. R. Horn,  L. D. Jacobson,  I. Kaliman,  T. Kus,  A. Landau,
 Jie Liu,  E. I. Proynov,  R. M. Richard,  R. P. Steele,  E. J. Sundstrom,
 H. L. Woodcock III,  P. M. Zimmerman,  D. Zuev,  B. Alam,  B. Albrecht,
 E. Alguire,  S. A. Baeppler,  D. Barton,  Z. Benda,  Y. A. Bernard,
 E. J. Berquist,  K. B. Bravaya,  H. Burton,  K. Carter-Fenk,  D. Casanova,
 Chun-Min Chang,  Yunqing Chen,  A. Chien,  K. D. Closser,  M. P. Coons,
 S. Coriani,  S. Dasgupta,  A. L. Dempwolff,  M. Diedenhofen,  Hainam Do,
 R. G. Edgar,  Po-Tung Fang,  S. Faraji,  S. Fatehi,  Qingguo Feng,
 J. Fosso-Tande,  J. Gayvert,  Qinghui Ge,  A. Ghysels,  G. Gidofalvi,
 J. Gomes,  J. Gonthier,  A. Gunina,  D. Hait,  M. W. D. Hanson-Heine,
 P. H. P. Harbach,  A. W. Hauser,  M. F. Herbst,  J. E. Herr,
 E. G. Hohenstein,  Z. C. Holden,  Kerwin Hui,  B. C. Huynh,  T.-C. Jagau,
 Hyunjun Ji,  B. Kaduk,  K. Khistyaev,  Jaehoon Kim,  P. Klunzinger,  K. Koh,
 D. Kosenkov,  L. Koulias,  T. Kowalczyk,  C. M. Krauter,  A. Kunitsa,
 Ka Un Lao,  A. Laurent,  K. V. Lawler,  Joonho Lee,  D. Lefrancois,
 S. Lehtola,  D. S. Levine,  Yi-Pei Li,  You-Sheng Lin,  Fenglai Liu,
 Kuan-Yu Liu,  E. Livshits,  M. Loipersberger,  A. Luenser,  P. Manohar,
 E. Mansoor,  S. F. Manzer,  Shan-Ping Mao,  Yuezhi Mao,  N. Mardirossian,
 A. V. Marenich,  T. Markovich,  L. A. Martinez-Martinez,  S. A. Maurer,
 N. J. Mayhall,  S. C. McKenzie,  J.-M. Mewes,  P. Morgante,  A. F. Morrison,
 J. W. Mullinax,  K. Nanda,  T. S. Nguyen-Beck,  R. Olivares-Amaya,
 J. A. Parkhill,  S. K. Paul,  F. Pavosevic,  Zheng Pei,  T. M. Perrine,
 F. Plasser,  P. Pokhilko,  S. Prager,  A. Prociuk,  E. Ramos,  B. Rana,
 D. R. Rehn,  F. Rob,  M. Scheurer,  M. Schneider,  N. Sergueev,
 S. M. Sharada,  S. Sharma,  D. W. Small,  T. Stauch,  C. J. Stein,
 T. Stein,  Yu-Chuan Su,  S. P. Veccham,  Zhen Tao,  A. J. W. Thom,
 A. Tkatchenko,  T. Tsuchimochi,  N. M. Tubman,  L. Vogt,  M. L. Vidal,
 O. Vydrov,  M. A. Watson,  J. Wenzel,  M. de Wergifosse,  T. A. Wesolowski,
 A. White,  J. Witte,  A. Yamada,  Jun Yang,  K. Yao,  S. Yeganeh,
 S. R. Yost,  Zhi-Qiang You,  A. Zech,  Igor Ying Zhang,  Xing Zhang,
 Yan Zhao,  Ying Zhu,  B. R. Brooks,  G. K. L. Chan,  C. J. Cramer,
 M. S. Gordon,  W. J. Hehre,  A. Klamt,  M. W. Schmidt,  C. D. Sherrill,
 D. G. Truhlar,  A. Aspuru-Guzik,  R. Baer,  A. T. Bell,  N. A. Besley,
 Jeng-Da Chai,  A. E. DePrince, III,  R. A. DiStasio Jr.,  A. Dreuw,
 B. D. Dunietz,  T. R. Furlani,  Chao-Ping Hsu,  Yousung Jung,  Jing Kong,
 D. S. Lambrecht,  WanZhen Liang,  C. Ochsenfeld,  V. A. Rassolov,
 L. V. Slipchenko,  J. E. Subotnik,  T. Van Voorhis,  J. M. Herbert,
 A. I. Krylov,  P. M. W. Gill,  M. Head-Gordon

 Contributors to earlier versions of Q-Chem not listed above:
 R. D. Adamson,  B. Austin,  J. Baker,  G. J. O. Beran,  K. Brandhorst,
 S. T. Brown,  E. F. C. Byrd,  A. K. Chakraborty,  C.-L. Cheng,
 Siu Hung Chien,  D. M. Chipman,  D. L. Crittenden,  H. Dachsel,
 R. J. Doerksen,  A. D. Dutoi,  L. Fusti-Molnar,  W. A. Goddard III,
 A. Golubeva-Zadorozhnaya,  S. R. Gwaltney,  G. Hawkins,  A. Heyden,
 S. Hirata,  G. Kedziora,  F. J. Keil,  C. Kelley,  Jihan Kim,  R. A. King,
 R. Z. Khaliullin,  P. P. Korambath,  W. Kurlancheek,  A. M. Lee,  M. S. Lee,
 S. V. Levchenko,  Ching Yeh Lin,  D. Liotard,  R. C. Lochan,  I. Lotan,
 P. E. Maslen,  N. Nair,  D. P. O'Neill,  D. Neuhauser,  E. Neuscamman,
 C. M. Oana,  R. Olson,  B. Peters,  R. Peverati,  P. A. Pieniazek,
 Y. M. Rhee,  J. Ritchie,  M. A. Rohrdanz,  E. Rosta,  N. J. Russ,
 H. F. Schaefer III,  N. E. Schultz,  N. Shenvi,  A. C. Simmonett,  A. Sodt,
 D. Stuck,  K. S. Thanthiriwatte,  V. Vanovschi,  Tao Wang,  A. Warshel,
 C. F. Williams,  Q. Wu,  X. Xu,  W. Zhang

 Please cite Q-Chem as follows:
 Y. Shao et al., Mol. Phys. 113, 184-215 (2015)
 DOI: 10.1080/00268976.2014.952696

 Q-Chem 5.2.2 for Intel X86 EM64T Linux

 Parts of Q-Chem use Armadillo 9.800.1 (Horizon Scraper).
 http://arma.sourceforge.net/

 Q-Chem begins on Sun Mar  7 03:01:17 2021

Host: node024
0

     Scratch files written to /home/ymao90/scratch/CCX_CO_-14020210307025610//
The previous job contains 0 fragments, simply inherited here

Checking the input file for inconsistencies... 	...done.

--------------------------------------------------------------
User input:
--------------------------------------------------------------

$molecule
read
$end

$rem
JOBTYPE  FREQ
METHOD  B3LYP
BASIS  6-31+G(D)
SYMMETRY  FALSE
SYM_IGNORE  TRUE
MEM_TOTAL  8000
MEM_STATIC  2000
MAX_SUB_FILE_NUM  16000
BASIS_LIN_DEP_THRESH  6
THRESH  14
SCF_CONVERGENCE  9
GEN_SCFMAN  TRUE
SCF_GUESS  READ
FD_MAT_VEC_PROD  FALSE
XC_GRID  000099000590
IDERIV   1
NL_GRID  1
MAX_SCF_CYCLES  200
ISOTOPES TRUE
$end

$isotopes
1 0
1
 21 2.0141018
$end

$multipole_field
Z   0.027227
$end
--------------------------------------------------------------

 Total energy in the final basis set =     -404.6601986674
   10    -404.6601965753      2.24e-10  Convergence criterion met
 Total energy in the final basis set =     -404.6601965753
    9    -404.6601981422      8.98e-10  Convergence criterion met
 Total energy in the final basis set =     -404.6601981422
   10    -404.6601972947      3.17e-10  Convergence criterion met
 Total energy in the final basis set =     -404.6601972947
    9    -404.6601979927      6.57e-10  Convergence criterion met
 Total energy in the final basis set =     -404.6601979927
   10    -404.6601975269      3.13e-10  Convergence criterion met
 Total energy in the final basis set =     -404.6601975269
   10    -404.6601974504      5.53e-10  Convergence criterion met
 Total energy in the final basis set =     -404.6601974504
   11    -404.6601959003      1.46e-10  Convergence criterion met
 Total energy in the final basis set =     -404.6601959003

                    Orbital Energies (a.u.)
 --------------------------------------------------------------

 Alpha MOs
 -- Occupied --
-19.1375 -14.3665 -10.2920 -10.2211 -10.1855 -10.1805 -10.1704 -10.1686
-10.1664  -1.0337  -0.9270  -0.8186  -0.7360  -0.7341  -0.6303  -0.6035
 -0.5846  -0.5589  -0.5195  -0.4812  -0.4535  -0.4372  -0.4329  -0.4148
 -0.4122  -0.3894  -0.3717  -0.3674  -0.3364  -0.3354  -0.3152  -0.3065
 -0.3030  -0.2723  -0.2561

          Ground-State Mulliken Net Atomic Charges

     Atom                 Charge (a.u.)
  ----------------------------------------
      1 C                    -0.207566
      2 C                    -0.478618
      3 C                    -0.228750
      4 C                    -0.511482
      5 C                    -0.268723
      6 C                    -0.524068
      7 H                     0.200742
      8 H                     0.176164
      9 H                     0.291595
     10 H                     0.189154
     11 H                     0.114969
     12 H                     0.239026
     13 H                     0.162913
     14 H                     0.292738
     15 H                     0.112426
     16 H                     0.226231
     17 H                     0.293982
     18 N                    -0.370538
     19 H                     0.477793
     20 C                     0.286154
     21 H                     0.194057
     22 O                    -0.668201
  ----------------------------------------
  Sum of atomic charges =     0.000000

                    Cartesian Multipole Moments
 -----------------------------------------------------------------
    Charge (ESU x 10^10)
                 0.0000
    Dipole Moment (Debye)
         X       2.0602      Y       1.2625      Z     -10.0765
       Tot      10.3621
    Quadrupole Moments (Debye-Ang)
        XX     -50.3363     XY       3.9859     YY     -54.3128
        XZ     -14.5869     YZ      -9.5663     ZZ     -55.8568

             Standard Nuclear Orientation (Angstroms)
    I     Atom           X                Y                Z
 ----------------------------------------------------------------
    1      C       1.9834643538     2.8320953559    -0.7235216604
    2      C       2.0942474575     1.3435777139    -0.3453914346
    3      C       3.3987505329     0.7387794306    -0.8939016026
    4      C       4.6090009439     1.5027492631    -0.3271406512
    5      C       4.5242796480     3.0107340243    -0.6173963327
    6      C       3.1845294642     3.6098712438    -0.1565026957
    7      H       3.4566377638    -0.3274435371    -0.6402249692
    8      H       2.0990003356     1.2592876900     0.7505947721
    9      H       1.9622288493     2.9404686285    -1.8159452193
   10      H       1.0369048336     3.2448270923    -0.3498039958
   11      H       4.6503862045     1.3407938885     0.7731031434
   12      H       5.5336714286     1.0909791449    -0.7477996699
   13      H       5.3634122895     3.5392535120    -0.1395970366
   14      H       4.6392515074     3.1755408120    -1.6958058759
   15      H       3.1321788381     3.5859399766     0.9555533048
   16      H       3.1190810953     4.6621447167    -0.4591778542
   17      H       3.4119197482     0.7985021435    -1.9903469702
   18      N       0.9151061780     0.5820962762    -0.7687870786
   19      H       0.7491498146     0.4741411061    -1.7699584107
   20      C       0.0311499454     0.0205033875     0.0644884793
   21      H      -0.7778022236    -0.5027614977    -0.4672871137
   22      O       0.0678580762     0.0509863690     1.3194529780
 ----------------------------------------------------------------

 Frequency:        58.89                 111.39                 220.75
 Force Cnst:      0.0096                 0.0257                 0.1034
 Red. Mass:       4.7139                 3.5146                 3.6020
 IR Intens:        8.768                  5.575                 11.057
 Frequency:       233.27                 242.32                 333.82
 Force Cnst:      0.0621                 0.0778                 0.1266
 Red. Mass:       1.9370                 2.2494                 1.9285
 IR Intens:        6.111                 19.581                  0.898
 Frequency:       401.87                 425.50                 460.77
 Force Cnst:      0.3668                 0.3472                 0.2783
 Red. Mass:       3.8544                 3.2548                 2.2248
 IR Intens:        9.546                 10.962                  1.057
 Frequency:       474.04                 537.73                 714.68
 Force Cnst:      0.4640                 0.2779                 0.3429
 Red. Mass:       3.5042                 1.6311                 1.1393
 IR Intens:        8.093                  1.624                 71.972
 Frequency:       745.19                 802.99                 819.48
 Force Cnst:      1.3883                 0.5497                 0.9006
 Red. Mass:       4.2433                 1.4469                 2.2763
 IR Intens:        5.671                  0.020                  1.501
 Frequency:       842.19                 905.22                 920.07
 Force Cnst:      0.8779                 0.9841                 1.0199
 Red. Mass:       2.1007                 2.0384                 2.0449
 IR Intens:        0.731                  7.514                  1.658
 Frequency:       931.59                 965.55                1032.84
 Force Cnst:      0.7268                 1.2699                 0.9968
 Red. Mass:       1.4213                 2.3119                 1.5860
 IR Intens:        0.669                  1.255                  0.153
 Frequency:      1036.87                1073.47                1084.16
 Force Cnst:      1.1554                 0.9560                 2.7015
 Red. Mass:       1.8240                 1.4080                 3.9009
 IR Intens:        0.607                  0.894                 21.901
 Frequency:      1088.07                1098.65                1173.35
 Force Cnst:      0.8445                 1.7095                 1.9103
 Red. Mass:       1.2107                 2.4038                 2.3551
 IR Intens:        0.023                  1.080                  5.287
 Frequency:      1214.09                1253.61                1278.45
 Force Cnst:      1.2173                 1.5660                 1.2461
 Red. Mass:       1.4017                 1.6913                 1.2940
 IR Intens:        0.285                 20.666                  3.493
 Frequency:      1299.32                1302.88                1345.65
 Force Cnst:      1.3104                 1.4384                 1.3686
 Red. Mass:       1.3174                 1.4382                 1.2828
 IR Intens:        0.623                  2.878                  2.156
 Frequency:      1355.29                1366.86                1382.20
 Force Cnst:      1.3593                 1.5082                 1.6692
 Red. Mass:       1.2560                 1.3701                 1.4829
 IR Intens:       13.482                  2.687                 14.179
 Frequency:      1389.16                1400.08                1414.99
 Force Cnst:      1.5218                 1.6781                 1.6831
 Red. Mass:       1.3385                 1.4530                 1.4268
 IR Intens:        0.755                  0.154                 29.836
 Frequency:      1425.89                1496.25                1502.47
 Force Cnst:      1.5115                 1.4412                 1.4447
 Red. Mass:       1.2618                 1.0926                 1.0862
 IR Intens:       52.418                  0.639                 10.902
 Frequency:      1506.34                1508.30                1527.84
 Force Cnst:      1.4591                 1.4682                 1.5038
 Red. Mass:       1.0914                 1.0954                 1.0934
 IR Intens:        9.643                  8.791                  3.627
 Frequency:      1585.58                1675.13                2852.99
 Force Cnst:      2.6545                 8.4820                 5.1451
 Red. Mass:       1.7921                 5.1304                 1.0729
 IR Intens:      146.850                492.555                 56.600
 Frequency:      2866.75                3011.31                3019.48
 Force Cnst:      5.1938                 5.7260                 5.8133
 Red. Mass:       1.0726                 1.0717                 1.0822
 IR Intens:      291.838                 91.071                 54.244
 Frequency:      3040.63                3048.17                3062.27
 Force Cnst:      5.7940                 5.8153                 6.0182
 Red. Mass:       1.0637                 1.0623                 1.0893
 IR Intens:       36.413                 23.786                 33.026
 Frequency:      3074.71                3085.86                3089.21
 Force Cnst:      6.0477                 6.1026                 6.1999
 Red. Mass:       1.0858                 1.0877                 1.1027
 IR Intens:       38.259                 32.024                  9.833
 Frequency:      3092.58                3097.37                3520.18
 Force Cnst:      6.1921                 6.2031                 7.8859
 Red. Mass:       1.0989                 1.0974                 1.0801
 IR Intens:        6.701                  7.350                104.431
 Frequency:        58.94                 110.58                 214.27
 Force Cnst:      0.0096                 0.0255                 0.0835
 Red. Mass:       4.7106                 3.5330                 3.0865
 IR Intens:        8.756                  5.490                 21.136
 Frequency:       222.04                 235.69                 333.62
 Force Cnst:      0.1008                 0.0590                 0.1270
 Red. Mass:       3.4715                 1.8040                 1.9373
 IR Intens:       12.123                  0.458                  0.846
 Frequency:       397.10                 415.36                 459.00
 Force Cnst:      0.3630                 0.3728                 0.3217
 Red. Mass:       3.9074                 3.6673                 2.5913
 IR Intens:        9.186                  8.484                  1.181
 Frequency:       465.18                 535.18                 712.88
 Force Cnst:      0.3605                 0.2748                 0.3382
 Red. Mass:       2.8279                 1.6284                 1.1295
 IR Intens:        1.504                  1.350                 77.077
 Frequency:       736.60                 802.99                 817.61
 Force Cnst:      1.3550                 0.5497                 0.8872
 Red. Mass:       4.2387                 1.4469                 2.2525
 IR Intens:        5.448                  0.020                  1.212
 Frequency:       841.38                 867.83                 905.26
 Force Cnst:      0.8902                 1.8041                 0.9805
 Red. Mass:       2.1343                 4.0658                 2.0306
 IR Intens:        0.944                  0.670                  7.403
 Frequency:       918.43                 931.67                 946.33
 Force Cnst:      1.0277                 0.7274                 1.2270
 Red. Mass:       2.0679                 1.4223                 2.3255
 IR Intens:        1.559                  0.689                  2.411
 Frequency:      1027.40                1038.56                1072.49
 Force Cnst:      1.3530                 1.2332                 0.9848
 Red. Mass:       2.1755                 1.9406                 1.4531
 IR Intens:        4.160                  1.624                  0.731
 Frequency:      1087.92                1098.19                1127.41
 Force Cnst:      0.8288                 1.7450                 2.6408
 Red. Mass:       1.1885                 2.4558                 3.5264
 IR Intens:        0.024                  0.891                 24.846
 Frequency:      1176.20                1213.62                1248.46
 Force Cnst:      2.0512                 1.2161                 1.8251
 Red. Mass:       2.5164                 1.4014                 1.9874
 IR Intens:       12.295                  0.390                 22.216
 Frequency:      1277.15                1299.24                1301.27
 Force Cnst:      1.2286                 1.3144                 1.3994
 Red. Mass:       1.2784                 1.3216                 1.4027
 IR Intens:        3.956                  0.622                  1.618
 Frequency:      1345.51                1353.92                1366.81
 Force Cnst:      1.3664                 1.3315                 1.5080
 Red. Mass:       1.2810                 1.2329                 1.3700
 IR Intens:        2.238                 15.793                  2.569
 Frequency:      1382.23                1389.09                1400.07
 Force Cnst:      1.6664                 1.5211                 1.6780
 Red. Mass:       1.4804                 1.3379                 1.4529
 IR Intens:       12.014                  0.713                  0.149
 Frequency:      1416.89                1496.25                1502.46
 Force Cnst:      1.6897                 1.4412                 1.4447
 Red. Mass:       1.4285                 1.0926                 1.0862
 IR Intens:        3.254                  0.649                 11.115
 Frequency:      1506.34                1508.28                1527.81
 Force Cnst:      1.4591                 1.4684                 1.5041
 Red. Mass:       1.0914                 1.0955                 1.0936
 IR Intens:        9.630                  8.523                  3.127
 Frequency:      1576.29                1651.74                2265.39
 Force Cnst:      2.4246                16.2115                 7.2609
 Red. Mass:       1.6563                10.0853                 2.4013
 IR Intens:       97.997                594.624                 35.219
 Frequency:      2852.99                2866.75                3011.31
 Force Cnst:      5.1451                 5.1938                 5.7260
 Red. Mass:       1.0729                 1.0726                 1.0717
 IR Intens:       56.629                291.982                 90.986
 Frequency:      3019.49                3040.63                3048.17
 Force Cnst:      5.8132                 5.7941                 5.8153
 Red. Mass:       1.0822                 1.0637                 1.0623
 IR Intens:       52.569                 36.351                 23.622
 Frequency:      3074.71                3085.86                3089.21
 Force Cnst:      6.0477                 6.1026                 6.1999
 Red. Mass:       1.0858                 1.0877                 1.1027
 IR Intens:       38.530                 32.096                  9.837
 Frequency:      3092.58                3097.37                3520.13
 Force Cnst:      6.1922                 6.2031                 7.8855
 Red. Mass:       1.0989                 1.0974                 1.0801
 IR Intens:        6.598                  7.441                105.055

 STANDARD THERMODYNAMIC QUANTITIES AT   298.18 K  AND     1.00 ATM

   This Molecule has  0 Imaginary Frequencies
   Zero point vibrational energy:      122.063 kcal/mol

   Atom    1 Element C  Has Mass   12.00000
   Atom    2 Element C  Has Mass   12.00000
   Atom    3 Element C  Has Mass   12.00000
   Atom    4 Element C  Has Mass   12.00000
   Atom    5 Element C  Has Mass   12.00000
   Atom    6 Element C  Has Mass   12.00000
   Atom    7 Element H  Has Mass    1.00783
   Atom    8 Element H  Has Mass    1.00783
   Atom    9 Element H  Has Mass    1.00783
   Atom   10 Element H  Has Mass    1.00783
   Atom   11 Element H  Has Mass    1.00783
   Atom   12 Element H  Has Mass    1.00783
   Atom   13 Element H  Has Mass    1.00783
   Atom   14 Element H  Has Mass    1.00783
   Atom   15 Element H  Has Mass    1.00783
   Atom   16 Element H  Has Mass    1.00783
   Atom   17 Element H  Has Mass    1.00783
   Atom   18 Element N  Has Mass   14.00307
   Atom   19 Element H  Has Mass    1.00783
   Atom   20 Element C  Has Mass   12.00000
   Atom   21 Element H  Has Mass    2.01410
   Atom   22 Element O  Has Mass   15.99491
   Molecular Mass:   128.106042 amu
   Principal axes and moments of inertia in amu*Bohr^2:
                             1           2           3
    Eigenvalues --      556.38049  2001.48916  2185.98557
          X               0.82295    -0.52528     0.21640
          Y               0.53803     0.84293    -0.00000
          Z              -0.18241     0.11643     0.97630
   Rotational Symmetry Number is   1
   The Molecule is an Asymmetric Top
   Translational Enthalpy:        0.889 kcal/mol
   Rotational Enthalpy:           0.889 kcal/mol
   Vibrational Enthalpy:        125.713 kcal/mol
   gas constant (RT):             0.593 kcal/mol
   Translational Entropy:        40.457  cal/mol.K
   Rotational Entropy:           29.278  cal/mol.K
   Vibrational Entropy:          21.384  cal/mol.K

   Total Enthalpy:              128.083 kcal/mol
   Total Entropy:                91.118  cal/mol.K

 Total job time:  5133.76s(wall), 81303.95s(cpu)
        *  Thank you very much for using Q-Chem.  Have a nice day.  *
