 Q-Chem 5.2 (devel), Q-Chem, Inc., Pleasanton, CA (2019)
 Q-Chem 5.2.2 for Intel X86 EM64T Linux

User input:
--------------------------------------------------------------
$molecule
0 1
C      1.9839655798    2.8343873569   -0.6530035790
C      2.0889665948    1.3399289492   -0.2973932582
C      3.4017166944    0.7321441035   -0.8222227424
C      4.6254659785    1.5200300416   -0.3255741318
C      4.5210827926    3.0122209378   -0.6783481608
C      3.2094896156    3.6188525050   -0.1554554411
H      3.4653882129   -0.3186255299   -0.5134835234
H      2.0538505535    1.2303619181    0.7916336585
H      1.9041773336    2.9373830819   -1.7471760654
H      1.0604862058    3.2447823031   -0.2264495779
H      4.7056113531    1.4098609561    0.7662015896
H      5.5416784391    1.0893334561   -0.7496610014
H      5.3807748665    3.5587419877   -0.2692766409
H      4.5659637339    3.1311627355   -1.7719372538
H      3.2192612515    3.6121018079    0.9447339030
H      3.1260878858    4.6703627905   -0.4590864625
H      3.3863457527    0.7409636912   -1.9242196110
N      0.9315723625    0.5939302253   -0.7942938700
H      0.8024957372    0.5217251348   -1.7968919912
C      0.0000000000    0.0000000000    0.0000000000
H     -0.7899738588   -0.5065817117   -0.5873052394
O     -0.0000000000    0.0000000000    1.2238135054
$end

$rem
JOBTYPE  OPT
METHOD  B3LYP
BASIS  6-31+G(D)
SYMMETRY  FALSE
SYM_IGNORE  TRUE
MEM_TOTAL  8000
MEM_STATIC  2000
MAX_SUB_FILE_NUM  16000
BASIS_LIN_DEP_THRESH  6
THRESH  14
SCF_CONVERGENCE  9
GEN_SCFMAN  TRUE
SCF_GUESS  SAD
FD_MAT_VEC_PROD  FALSE
XC_GRID  000099000590
NL_GRID  1
MAX_SCF_CYCLES  200
GEOM_OPT_TOL_GRADIENT  100
GEOM_OPT_TOL_DISPLACEMENT  100
GEOM_OPT_TOL_ENERGY  10
$end

$multipole_field
Z   0.031505
$end

--------------------------------------------------------------

   15    -404.6747381576      9.65e-10  Convergence criterion met
 Total energy in the final basis set =     -404.6747381576
   13    -404.6776382864      2.68e-10  Convergence criterion met
 Total energy in the final basis set =     -404.6776382864
   12    -404.6780507715      8.19e-10  Convergence criterion met
 Total energy in the final basis set =     -404.6780507715
   11    -404.6780652661      6.13e-10  Convergence criterion met
 Total energy in the final basis set =     -404.6780652661
   11    -404.6780599627      4.75e-10  Convergence criterion met
 Total energy in the final basis set =     -404.6780599627
   11    -404.6780676333      3.03e-10  Convergence criterion met
 Total energy in the final basis set =     -404.6780676333
   10    -404.6780677218      6.04e-10  Convergence criterion met
 Total energy in the final basis set =     -404.6780677218
 Final energy is   -404.678067721799
 **  OPTIMIZATION CONVERGED  **
 Total job time:  308.11s(wall), 4854.11s(cpu)
        *  Thank you very much for using Q-Chem.  Have a nice day.  *

User input: 2 of 2

                  Welcome to Q-Chem
     A Quantum Leap Into The Future Of Chemistry

 Q-Chem 5.2 (devel), Q-Chem, Inc., Pleasanton, CA (2019)

 Yihan Shao,  Zhengting Gan,  E. Epifanovsky,  A. T. B. Gilbert,  M. Wormit,
 J. Kussmann,  A. W. Lange,  A. Behn,  Jia Deng,  Xintian Feng,  D. Ghosh,
 M. Goldey,  P. R. Horn,  L. D. Jacobson,  I. Kaliman,  T. Kus,  A. Landau,
 Jie Liu,  E. I. Proynov,  R. M. Richard,  R. P. Steele,  E. J. Sundstrom,
 H. L. Woodcock III,  P. M. Zimmerman,  D. Zuev,  B. Alam,  B. Albrecht,
 E. Alguire,  S. A. Baeppler,  D. Barton,  Z. Benda,  Y. A. Bernard,
 E. J. Berquist,  K. B. Bravaya,  H. Burton,  K. Carter-Fenk,  D. Casanova,
 Chun-Min Chang,  Yunqing Chen,  A. Chien,  K. D. Closser,  M. P. Coons,
 S. Coriani,  S. Dasgupta,  A. L. Dempwolff,  M. Diedenhofen,  Hainam Do,
 R. G. Edgar,  Po-Tung Fang,  S. Faraji,  S. Fatehi,  Qingguo Feng,
 J. Fosso-Tande,  J. Gayvert,  Qinghui Ge,  A. Ghysels,  G. Gidofalvi,
 J. Gomes,  J. Gonthier,  A. Gunina,  D. Hait,  M. W. D. Hanson-Heine,
 P. H. P. Harbach,  A. W. Hauser,  M. F. Herbst,  J. E. Herr,
 E. G. Hohenstein,  Z. C. Holden,  Kerwin Hui,  B. C. Huynh,  T.-C. Jagau,
 Hyunjun Ji,  B. Kaduk,  K. Khistyaev,  Jaehoon Kim,  P. Klunzinger,  K. Koh,
 D. Kosenkov,  L. Koulias,  T. Kowalczyk,  C. M. Krauter,  A. Kunitsa,
 Ka Un Lao,  A. Laurent,  K. V. Lawler,  Joonho Lee,  D. Lefrancois,
 S. Lehtola,  D. S. Levine,  Yi-Pei Li,  You-Sheng Lin,  Fenglai Liu,
 Kuan-Yu Liu,  E. Livshits,  M. Loipersberger,  A. Luenser,  P. Manohar,
 E. Mansoor,  S. F. Manzer,  Shan-Ping Mao,  Yuezhi Mao,  N. Mardirossian,
 A. V. Marenich,  T. Markovich,  L. A. Martinez-Martinez,  S. A. Maurer,
 N. J. Mayhall,  S. C. McKenzie,  J.-M. Mewes,  P. Morgante,  A. F. Morrison,
 J. W. Mullinax,  K. Nanda,  T. S. Nguyen-Beck,  R. Olivares-Amaya,
 J. A. Parkhill,  S. K. Paul,  F. Pavosevic,  Zheng Pei,  T. M. Perrine,
 F. Plasser,  P. Pokhilko,  S. Prager,  A. Prociuk,  E. Ramos,  B. Rana,
 D. R. Rehn,  F. Rob,  M. Scheurer,  M. Schneider,  N. Sergueev,
 S. M. Sharada,  S. Sharma,  D. W. Small,  T. Stauch,  C. J. Stein,
 T. Stein,  Yu-Chuan Su,  S. P. Veccham,  Zhen Tao,  A. J. W. Thom,
 A. Tkatchenko,  T. Tsuchimochi,  N. M. Tubman,  L. Vogt,  M. L. Vidal,
 O. Vydrov,  M. A. Watson,  J. Wenzel,  M. de Wergifosse,  T. A. Wesolowski,
 A. White,  J. Witte,  A. Yamada,  Jun Yang,  K. Yao,  S. Yeganeh,
 S. R. Yost,  Zhi-Qiang You,  A. Zech,  Igor Ying Zhang,  Xing Zhang,
 Yan Zhao,  Ying Zhu,  B. R. Brooks,  G. K. L. Chan,  C. J. Cramer,
 M. S. Gordon,  W. J. Hehre,  A. Klamt,  M. W. Schmidt,  C. D. Sherrill,
 D. G. Truhlar,  A. Aspuru-Guzik,  R. Baer,  A. T. Bell,  N. A. Besley,
 Jeng-Da Chai,  A. E. DePrince, III,  R. A. DiStasio Jr.,  A. Dreuw,
 B. D. Dunietz,  T. R. Furlani,  Chao-Ping Hsu,  Yousung Jung,  Jing Kong,
 D. S. Lambrecht,  WanZhen Liang,  C. Ochsenfeld,  V. A. Rassolov,
 L. V. Slipchenko,  J. E. Subotnik,  T. Van Voorhis,  J. M. Herbert,
 A. I. Krylov,  P. M. W. Gill,  M. Head-Gordon

 Contributors to earlier versions of Q-Chem not listed above:
 R. D. Adamson,  B. Austin,  J. Baker,  G. J. O. Beran,  K. Brandhorst,
 S. T. Brown,  E. F. C. Byrd,  A. K. Chakraborty,  C.-L. Cheng,
 Siu Hung Chien,  D. M. Chipman,  D. L. Crittenden,  H. Dachsel,
 R. J. Doerksen,  A. D. Dutoi,  L. Fusti-Molnar,  W. A. Goddard III,
 A. Golubeva-Zadorozhnaya,  S. R. Gwaltney,  G. Hawkins,  A. Heyden,
 S. Hirata,  G. Kedziora,  F. J. Keil,  C. Kelley,  Jihan Kim,  R. A. King,
 R. Z. Khaliullin,  P. P. Korambath,  W. Kurlancheek,  A. M. Lee,  M. S. Lee,
 S. V. Levchenko,  Ching Yeh Lin,  D. Liotard,  R. C. Lochan,  I. Lotan,
 P. E. Maslen,  N. Nair,  D. P. O'Neill,  D. Neuhauser,  E. Neuscamman,
 C. M. Oana,  R. Olson,  B. Peters,  R. Peverati,  P. A. Pieniazek,
 Y. M. Rhee,  J. Ritchie,  M. A. Rohrdanz,  E. Rosta,  N. J. Russ,
 H. F. Schaefer III,  N. E. Schultz,  N. Shenvi,  A. C. Simmonett,  A. Sodt,
 D. Stuck,  K. S. Thanthiriwatte,  V. Vanovschi,  Tao Wang,  A. Warshel,
 C. F. Williams,  Q. Wu,  X. Xu,  W. Zhang

 Please cite Q-Chem as follows:
 Y. Shao et al., Mol. Phys. 113, 184-215 (2015)
 DOI: 10.1080/00268976.2014.952696

 Q-Chem 5.2.2 for Intel X86 EM64T Linux

 Parts of Q-Chem use Armadillo 9.800.1 (Horizon Scraper).
 http://arma.sourceforge.net/

 Q-Chem begins on Sun Mar  7 03:01:23 2021

Host: node024
0

     Scratch files written to /home/ymao90/scratch/CCX_CO_-16020210307025610//
The previous job contains 0 fragments, simply inherited here

Checking the input file for inconsistencies... 	...done.

--------------------------------------------------------------
User input:
--------------------------------------------------------------

$molecule
read
$end

$rem
JOBTYPE  FREQ
METHOD  B3LYP
BASIS  6-31+G(D)
SYMMETRY  FALSE
SYM_IGNORE  TRUE
MEM_TOTAL  8000
MEM_STATIC  2000
MAX_SUB_FILE_NUM  16000
BASIS_LIN_DEP_THRESH  6
THRESH  14
SCF_CONVERGENCE  9
GEN_SCFMAN  TRUE
SCF_GUESS  READ
FD_MAT_VEC_PROD  FALSE
XC_GRID  000099000590
IDERIV   1
NL_GRID  1
MAX_SCF_CYCLES  200
ISOTOPES TRUE
$end

$isotopes
1 0
1
 21 2.0141018
$end

$multipole_field
Z   0.031505
$end
--------------------------------------------------------------

 Total energy in the final basis set =     -404.6780687409
   10    -404.6780662489      2.23e-10  Convergence criterion met
 Total energy in the final basis set =     -404.6780662489
    9    -404.6780681220      8.83e-10  Convergence criterion met
 Total energy in the final basis set =     -404.6780681220
   10    -404.6780670578      3.27e-10  Convergence criterion met
 Total energy in the final basis set =     -404.6780670578
    9    -404.6780679170      6.57e-10  Convergence criterion met
 Total energy in the final basis set =     -404.6780679170
   10    -404.6780673439      3.14e-10  Convergence criterion met
 Total energy in the final basis set =     -404.6780673439
   10    -404.6780675074      5.35e-10  Convergence criterion met
 Total energy in the final basis set =     -404.6780675074
   10    -404.6780656736      4.10e-10  Convergence criterion met
 Total energy in the final basis set =     -404.6780656736

                    Orbital Energies (a.u.)
 --------------------------------------------------------------

 Alpha MOs
 -- Occupied --
-19.1410 -14.3668 -10.2932 -10.2201 -10.1855 -10.1797 -10.1673 -10.1664
-10.1625  -1.0338  -0.9268  -0.8168  -0.7344  -0.7318  -0.6292  -0.6010
 -0.5831  -0.5575  -0.5184  -0.4815  -0.4524  -0.4358  -0.4317  -0.4143
 -0.4117  -0.3876  -0.3697  -0.3662  -0.3337  -0.3323  -0.3132  -0.3044
 -0.3013  -0.2753  -0.2565

          Ground-State Mulliken Net Atomic Charges

     Atom                 Charge (a.u.)
  ----------------------------------------
      1 C                    -0.199338
      2 C                    -0.474998
      3 C                    -0.223574
      4 C                    -0.531742
      5 C                    -0.244162
      6 C                    -0.547061
      7 H                     0.201019
      8 H                     0.167561
      9 H                     0.307128
     10 H                     0.187524
     11 H                     0.102221
     12 H                     0.246093
     13 H                     0.157152
     14 H                     0.307474
     15 H                     0.099258
     16 H                     0.231453
     17 H                     0.309970
     18 N                    -0.365331
     19 H                     0.490721
     20 C                     0.274373
     21 H                     0.201256
     22 O                    -0.696998
  ----------------------------------------
  Sum of atomic charges =     0.000000

                    Cartesian Multipole Moments
 -----------------------------------------------------------------
    Charge (ESU x 10^10)
                 0.0000
    Dipole Moment (Debye)
         X       2.1242      Y       1.2965      Z     -11.1462
       Tot      11.4207
    Quadrupole Moments (Debye-Ang)
        XX     -50.1507     XY       4.0830     YY     -54.2646
        XZ     -17.0164     YZ     -11.1476     ZZ     -55.8341

             Standard Nuclear Orientation (Angstroms)
    I     Atom           X                Y                Z
 ----------------------------------------------------------------
    1      C       1.9836161694     2.8321000447    -0.7359288559
    2      C       2.0951641162     1.3445528784    -0.3534647174
    3      C       3.3982978191     0.7399757834    -0.9061387264
    4      C       4.6061597681     1.4995975138    -0.3277643382
    5      C       4.5245654836     3.0101259542    -0.6065818123
    6      C       3.1802706213     3.6086139766    -0.1572735975
    7      H       3.4554123608    -0.3286335091    -0.6624659008
    8      H       2.1072685000     1.2651573651     0.7439802695
    9      H       1.9728083318     2.9409823269    -1.8286542474
   10      H       1.0334344277     3.2457549720    -0.3721369657
   11      H       4.6410956408     1.3286242119     0.7745091042
   12      H       5.5324081054     1.0908694130    -0.7476425230
   13      H       5.3597031740     3.5352178713    -0.1165061030
   14      H       4.6516764734     3.1827529872    -1.6825864478
   15      H       3.1169258245     3.5822431217     0.9575145429
   16      H       3.1181071513     4.6610994861    -0.4597096378
   17      H       3.4161704278     0.8084955064    -2.0022317604
   18      N       0.9122141822     0.5804168469    -0.7634146655
   19      H       0.7392753323     0.4674683358    -1.7647175485
   20      C       0.0363996721     0.0231373975     0.0761969824
   21      H      -0.7752762770    -0.5025976089    -0.4474446042
   22      O       0.0787097803     0.0571118657     1.3370656592
 ----------------------------------------------------------------

 Frequency:        64.23                 112.82                 222.04
 Force Cnst:      0.0114                 0.0263                 0.1050
 Red. Mass:       4.6786                 3.5018                 3.6133
 IR Intens:        9.273                  5.701                 11.532
 Frequency:       235.39                 247.56                 334.32
 Force Cnst:      0.0626                 0.0835                 0.1275
 Red. Mass:       1.9170                 2.3126                 1.9362
 IR Intens:        4.994                 20.414                  1.112
 Frequency:       402.20                 428.14                 463.15
 Force Cnst:      0.3697                 0.3455                 0.2801
 Red. Mass:       3.8794                 3.1988                 2.2165
 IR Intens:        9.920                  9.824                  1.187
 Frequency:       477.37                 538.60                 739.83
 Force Cnst:      0.4688                 0.2791                 0.3705
 Red. Mass:       3.4920                 1.6328                 1.1489
 IR Intens:        8.555                  1.663                 73.622
 Frequency:       743.92                 802.94                 817.80
 Force Cnst:      1.3641                 0.5499                 0.8783
 Red. Mass:       4.1835                 1.4476                 2.2289
 IR Intens:        6.481                  0.104                  1.743
 Frequency:       840.16                 904.80                 919.46
 Force Cnst:      0.8886                 0.9998                 1.0288
 Red. Mass:       2.1367                 2.0728                 2.0654
 IR Intens:        0.648                  7.517                  2.188
 Frequency:       929.79                 964.11                1034.35
 Force Cnst:      0.7178                 1.2631                 1.0005
 Red. Mass:       1.4091                 2.3065                 1.5872
 IR Intens:        0.685                  1.041                  0.146
 Frequency:      1035.76                1073.36                1084.16
 Force Cnst:      1.1518                 0.9556                 2.7243
 Red. Mass:       1.8222                 1.4078                 3.9339
 IR Intens:        0.555                  0.917                 25.215
 Frequency:      1086.10                1097.23                1170.58
 Force Cnst:      0.8430                 1.7048                 1.9081
 Red. Mass:       1.2129                 2.4034                 2.3635
 IR Intens:        0.063                  1.016                  5.825
 Frequency:      1212.66                1255.08                1276.80
 Force Cnst:      1.2025                 1.5340                 1.2621
 Red. Mass:       1.3879                 1.6529                 1.3140
 IR Intens:        0.569                 19.856                  1.657
 Frequency:      1298.32                1302.26                1344.71
 Force Cnst:      1.3194                 1.4563                 1.3648
 Red. Mass:       1.3285                 1.4575                 1.2810
 IR Intens:        0.460                  1.674                  2.555
 Frequency:      1355.84                1363.72                1379.84
 Force Cnst:      1.3649                 1.5013                 1.6631
 Red. Mass:       1.2602                 1.3702                 1.4825
 IR Intens:       10.865                  3.041                 14.569
 Frequency:      1388.42                1400.54                1413.94
 Force Cnst:      1.5190                 1.6727                 1.6446
 Red. Mass:       1.3374                 1.4474                 1.3962
 IR Intens:        0.734                  0.139                 54.634
 Frequency:      1424.97                1492.13                1499.03
 Force Cnst:      1.5383                 1.4357                 1.4395
 Red. Mass:       1.2858                 1.0945                 1.0873
 IR Intens:       45.448                  0.863                 10.908
 Frequency:      1504.65                1505.71                1526.82
 Force Cnst:      1.4543                 1.4633                 1.5007
 Red. Mass:       1.0902                 1.0954                 1.0926
 IR Intens:       11.219                  9.618                  4.518
 Frequency:      1590.04                1660.99                2811.63
 Force Cnst:      2.6116                 8.0176                 4.9936
 Red. Mass:       1.7533                 4.9324                 1.0721
 IR Intens:      124.584                503.845                 75.024
 Frequency:      2828.70                3001.46                3003.18
 Force Cnst:      5.0536                 5.7053                 5.7346
 Red. Mass:       1.0720                 1.0749                 1.0792
 IR Intens:      353.409                 50.729                122.473
 Frequency:      3039.15                3048.19                3072.23
 Force Cnst:      5.7913                 5.8161                 6.0600
 Red. Mass:       1.0642                 1.0624                 1.0897
 IR Intens:       38.507                 24.017                 25.827
 Frequency:      3076.15                3087.97                3089.77
 Force Cnst:      6.0519                 6.1288                 6.1852
 Red. Mass:       1.0855                 1.0909                 1.0996
 IR Intens:       34.406                 34.277                  5.529
 Frequency:      3093.04                3097.61                3499.27
 Force Cnst:      6.1915                 6.2018                 7.7958
 Red. Mass:       1.0984                 1.0970                 1.0806
 IR Intens:        7.569                  0.974                125.503
 Frequency:        64.29                 111.98                 218.43
 Force Cnst:      0.0114                 0.0260                 0.0901
 Red. Mass:       4.6761                 3.5199                 3.2054
 IR Intens:        9.245                  5.623                 19.053
 Frequency:       223.86                 238.32                 334.11
 Force Cnst:      0.0982                 0.0609                 0.1280
 Red. Mass:       3.3248                 1.8186                 1.9455
 IR Intens:       14.384                  0.898                  1.052
 Frequency:       397.52                 418.23                 460.80
 Force Cnst:      0.3659                 0.3695                 0.3365
 Red. Mass:       3.9303                 3.5858                 2.6898
 IR Intens:        9.581                  8.017                  1.414
 Frequency:       467.25                 536.07                 735.39
 Force Cnst:      0.3503                 0.2759                 1.3319
 Red. Mass:       2.7235                 1.6296                 4.1801
 IR Intens:        1.443                  1.379                  6.631
 Frequency:       739.06                 802.94                 816.01
 Force Cnst:      0.3666                 0.5499                 0.8656
 Red. Mass:       1.1392                 1.4476                 2.2065
 IR Intens:       76.820                  0.106                  1.414
 Frequency:       839.38                 868.64                 904.84
 Force Cnst:      0.9009                 1.7936                 0.9965
 Red. Mass:       2.1703                 4.0347                 2.0659
 IR Intens:        0.855                  1.026                  7.386
 Frequency:       917.91                 929.86                 945.75
 Force Cnst:      1.0333                 0.7182                 1.2274
 Red. Mass:       2.0816                 1.4098                 2.3290
 IR Intens:        1.955                  0.713                  2.462
 Frequency:      1027.51                1037.90                1072.27
 Force Cnst:      1.3304                 1.2576                 0.9908
 Red. Mass:       2.1388                 1.9814                 1.4626
 IR Intens:        3.960                  2.387                  0.741
 Frequency:      1085.92                1096.77                1126.35
 Force Cnst:      0.8251                 1.7364                 2.6764
 Red. Mass:       1.1876                 2.4501                 3.5805
 IR Intens:        0.032                  0.827                 29.268
 Frequency:      1172.94                1212.17                1248.57
 Force Cnst:      2.0306                 1.2012                 1.8020
 Red. Mass:       2.5051                 1.3875                 1.9619
 IR Intens:       12.708                  0.714                 23.020
 Frequency:      1274.98                1298.23                1300.42
 Force Cnst:      1.2305                 1.3222                 1.4066
 Red. Mass:       1.2847                 1.3315                 1.4118
 IR Intens:        2.731                  0.445                  1.037
 Frequency:      1344.58                1354.73                1363.67
 Force Cnst:      1.3629                 1.3380                 1.5011
 Red. Mass:       1.2795                 1.2374                 1.3700
 IR Intens:        2.563                 15.458                  2.882
 Frequency:      1379.87                1388.35                1400.53
 Force Cnst:      1.6592                 1.5182                 1.6726
 Red. Mass:       1.4790                 1.3368                 1.4473
 IR Intens:       11.934                  0.698                  0.137
 Frequency:      1417.74                1492.13                1499.02
 Force Cnst:      1.6801                 1.4357                 1.4395
 Red. Mass:       1.4187                 1.0945                 1.0873
 IR Intens:        4.397                  0.877                 11.110
 Frequency:      1504.64                1505.69                1526.78
 Force Cnst:      1.4543                 1.4633                 1.5011
 Red. Mass:       1.0903                 1.0955                 1.0930
 IR Intens:       11.208                  9.420                  3.755
 Frequency:      1579.18                1637.41                2272.83
 Force Cnst:      2.3727                17.0818                 7.3034
 Red. Mass:       1.6148                10.8136                 2.3996
 IR Intens:       71.466                621.864                 28.560
 Frequency:      2811.63                2828.70                3001.46
 Force Cnst:      4.9936                 5.0536                 5.7053
 Red. Mass:       1.0721                 1.0720                 1.0749
 IR Intens:       75.058                353.559                 51.068
 Frequency:      3003.19                3039.15                3048.19
 Force Cnst:      5.7346                 5.7913                 5.8162
 Red. Mass:       1.0792                 1.0642                 1.0624
 IR Intens:      121.219                 38.466                 23.942
 Frequency:      3076.14                3087.97                3089.77
 Force Cnst:      6.0519                 6.1288                 6.1852
 Red. Mass:       1.0855                 1.0909                 1.0996
 IR Intens:       34.951                 34.302                  5.545
 Frequency:      3093.04                3097.61                3499.23
 Force Cnst:      6.1916                 6.2018                 7.7954
 Red. Mass:       1.0985                 1.0970                 1.0806
 IR Intens:        7.442                  1.011                126.171

 STANDARD THERMODYNAMIC QUANTITIES AT   298.18 K  AND     1.00 ATM

   This Molecule has  0 Imaginary Frequencies
   Zero point vibrational energy:      121.897 kcal/mol

   Atom    1 Element C  Has Mass   12.00000
   Atom    2 Element C  Has Mass   12.00000
   Atom    3 Element C  Has Mass   12.00000
   Atom    4 Element C  Has Mass   12.00000
   Atom    5 Element C  Has Mass   12.00000
   Atom    6 Element C  Has Mass   12.00000
   Atom    7 Element H  Has Mass    1.00783
   Atom    8 Element H  Has Mass    1.00783
   Atom    9 Element H  Has Mass    1.00783
   Atom   10 Element H  Has Mass    1.00783
   Atom   11 Element H  Has Mass    1.00783
   Atom   12 Element H  Has Mass    1.00783
   Atom   13 Element H  Has Mass    1.00783
   Atom   14 Element H  Has Mass    1.00783
   Atom   15 Element H  Has Mass    1.00783
   Atom   16 Element H  Has Mass    1.00783
   Atom   17 Element H  Has Mass    1.00783
   Atom   18 Element N  Has Mass   14.00307
   Atom   19 Element H  Has Mass    1.00783
   Atom   20 Element C  Has Mass   12.00000
   Atom   21 Element H  Has Mass    2.01410
   Atom   22 Element O  Has Mass   15.99491
   Molecular Mass:   128.106042 amu
   Principal axes and moments of inertia in amu*Bohr^2:
                             1           2           3
    Eigenvalues --      559.44881  1999.64022  2181.38105
          X               0.82249    -0.52478     0.21934
          Y               0.53781     0.84307     0.00038
          Z              -0.18512     0.11765     0.97565
   Rotational Symmetry Number is   1
   The Molecule is an Asymmetric Top
   Translational Enthalpy:        0.889 kcal/mol
   Rotational Enthalpy:           0.889 kcal/mol
   Vibrational Enthalpy:        125.521 kcal/mol
   gas constant (RT):             0.593 kcal/mol
   Translational Entropy:        40.457  cal/mol.K
   Rotational Entropy:           29.280  cal/mol.K
   Vibrational Entropy:          21.073  cal/mol.K

   Total Enthalpy:              127.891 kcal/mol
   Total Entropy:                90.810  cal/mol.K

 Total job time:  5101.21s(wall), 80703.33s(cpu)
        *  Thank you very much for using Q-Chem.  Have a nice day.  *
