 Q-Chem 5.2 (devel), Q-Chem, Inc., Pleasanton, CA (2019)
 Q-Chem 5.2.2 for Intel X86 EM64T Linux

User input:
--------------------------------------------------------------
$molecule
0 1
C      1.9839655798    2.8343873569   -0.6530035790
C      2.0889665948    1.3399289492   -0.2973932582
C      3.4017166944    0.7321441035   -0.8222227424
C      4.6254659785    1.5200300416   -0.3255741318
C      4.5210827926    3.0122209378   -0.6783481608
C      3.2094896156    3.6188525050   -0.1554554411
H      3.4653882129   -0.3186255299   -0.5134835234
H      2.0538505535    1.2303619181    0.7916336585
H      1.9041773336    2.9373830819   -1.7471760654
H      1.0604862058    3.2447823031   -0.2264495779
H      4.7056113531    1.4098609561    0.7662015896
H      5.5416784391    1.0893334561   -0.7496610014
H      5.3807748665    3.5587419877   -0.2692766409
H      4.5659637339    3.1311627355   -1.7719372538
H      3.2192612515    3.6121018079    0.9447339030
H      3.1260878858    4.6703627905   -0.4590864625
H      3.3863457527    0.7409636912   -1.9242196110
N      0.9315723625    0.5939302253   -0.7942938700
H      0.8024957372    0.5217251348   -1.7968919912
C      0.0000000000    0.0000000000    0.0000000000
H     -0.7899738588   -0.5065817117   -0.5873052394
O     -0.0000000000    0.0000000000    1.2238135054
$end

$rem
JOBTYPE  OPT
METHOD  B3LYP
BASIS  6-31+G(D)
SYMMETRY  FALSE
SYM_IGNORE  TRUE
MEM_TOTAL  8000
MEM_STATIC  2000
MAX_SUB_FILE_NUM  16000
BASIS_LIN_DEP_THRESH  6
THRESH  14
SCF_CONVERGENCE  9
GEN_SCFMAN  TRUE
SCF_GUESS  SAD
FD_MAT_VEC_PROD  FALSE
XC_GRID  000099000590
NL_GRID  1
MAX_SCF_CYCLES  200
GEOM_OPT_TOL_GRADIENT  100
GEOM_OPT_TOL_DISPLACEMENT  100
GEOM_OPT_TOL_ENERGY  10
$end

$multipole_field
Z   -0.003890
$end

--------------------------------------------------------------

   16    -404.5821010621      2.99e-10  Convergence criterion met
 Total energy in the final basis set =     -404.5821010621
   11    -404.5821377505      5.61e-10  Convergence criterion met
 Total energy in the final basis set =     -404.5821377505
   10    -404.5821391962      8.92e-10  Convergence criterion met
 Total energy in the final basis set =     -404.5821391962
   11    -404.5821394812      4.21e-10  Convergence criterion met
 Total energy in the final basis set =     -404.5821394812
   10    -404.5821412501      5.93e-10  Convergence criterion met
 Total energy in the final basis set =     -404.5821412501
   10    -404.5821413922      2.11e-10  Convergence criterion met
 Total energy in the final basis set =     -404.5821413922
   11    -404.5821424485      7.51e-10  Convergence criterion met
 Total energy in the final basis set =     -404.5821424485
   13    -404.5821499958      7.85e-10  Convergence criterion met
 **  OPTIMIZATION CONVERGED  **
 Total job time:  848.39s(wall), 13403.83s(cpu)
        *  Thank you very much for using Q-Chem.  Have a nice day.  *

User input: 2 of 2

                  Welcome to Q-Chem
     A Quantum Leap Into The Future Of Chemistry

 Q-Chem 5.2 (devel), Q-Chem, Inc., Pleasanton, CA (2019)

 Yihan Shao,  Zhengting Gan,  E. Epifanovsky,  A. T. B. Gilbert,  M. Wormit,
 J. Kussmann,  A. W. Lange,  A. Behn,  Jia Deng,  Xintian Feng,  D. Ghosh,
 M. Goldey,  P. R. Horn,  L. D. Jacobson,  I. Kaliman,  T. Kus,  A. Landau,
 Jie Liu,  E. I. Proynov,  R. M. Richard,  R. P. Steele,  E. J. Sundstrom,
 H. L. Woodcock III,  P. M. Zimmerman,  D. Zuev,  B. Alam,  B. Albrecht,
 E. Alguire,  S. A. Baeppler,  D. Barton,  Z. Benda,  Y. A. Bernard,
 E. J. Berquist,  K. B. Bravaya,  H. Burton,  K. Carter-Fenk,  D. Casanova,
 Chun-Min Chang,  Yunqing Chen,  A. Chien,  K. D. Closser,  M. P. Coons,
 S. Coriani,  S. Dasgupta,  A. L. Dempwolff,  M. Diedenhofen,  Hainam Do,
 R. G. Edgar,  Po-Tung Fang,  S. Faraji,  S. Fatehi,  Qingguo Feng,
 J. Fosso-Tande,  J. Gayvert,  Qinghui Ge,  A. Ghysels,  G. Gidofalvi,
 J. Gomes,  J. Gonthier,  A. Gunina,  D. Hait,  M. W. D. Hanson-Heine,
 P. H. P. Harbach,  A. W. Hauser,  M. F. Herbst,  J. E. Herr,
 E. G. Hohenstein,  Z. C. Holden,  Kerwin Hui,  B. C. Huynh,  T.-C. Jagau,
 Hyunjun Ji,  B. Kaduk,  K. Khistyaev,  Jaehoon Kim,  P. Klunzinger,  K. Koh,
 D. Kosenkov,  L. Koulias,  T. Kowalczyk,  C. M. Krauter,  A. Kunitsa,
 Ka Un Lao,  A. Laurent,  K. V. Lawler,  Joonho Lee,  D. Lefrancois,
 S. Lehtola,  D. S. Levine,  Yi-Pei Li,  You-Sheng Lin,  Fenglai Liu,
 Kuan-Yu Liu,  E. Livshits,  M. Loipersberger,  A. Luenser,  P. Manohar,
 E. Mansoor,  S. F. Manzer,  Shan-Ping Mao,  Yuezhi Mao,  N. Mardirossian,
 A. V. Marenich,  T. Markovich,  L. A. Martinez-Martinez,  S. A. Maurer,
 N. J. Mayhall,  S. C. McKenzie,  J.-M. Mewes,  P. Morgante,  A. F. Morrison,
 J. W. Mullinax,  K. Nanda,  T. S. Nguyen-Beck,  R. Olivares-Amaya,
 J. A. Parkhill,  S. K. Paul,  F. Pavosevic,  Zheng Pei,  T. M. Perrine,
 F. Plasser,  P. Pokhilko,  S. Prager,  A. Prociuk,  E. Ramos,  B. Rana,
 D. R. Rehn,  F. Rob,  M. Scheurer,  M. Schneider,  N. Sergueev,
 S. M. Sharada,  S. Sharma,  D. W. Small,  T. Stauch,  C. J. Stein,
 T. Stein,  Yu-Chuan Su,  S. P. Veccham,  Zhen Tao,  A. J. W. Thom,
 A. Tkatchenko,  T. Tsuchimochi,  N. M. Tubman,  L. Vogt,  M. L. Vidal,
 O. Vydrov,  M. A. Watson,  J. Wenzel,  M. de Wergifosse,  T. A. Wesolowski,
 A. White,  J. Witte,  A. Yamada,  Jun Yang,  K. Yao,  S. Yeganeh,
 S. R. Yost,  Zhi-Qiang You,  A. Zech,  Igor Ying Zhang,  Xing Zhang,
 Yan Zhao,  Ying Zhu,  B. R. Brooks,  G. K. L. Chan,  C. J. Cramer,
 M. S. Gordon,  W. J. Hehre,  A. Klamt,  M. W. Schmidt,  C. D. Sherrill,
 D. G. Truhlar,  A. Aspuru-Guzik,  R. Baer,  A. T. Bell,  N. A. Besley,
 Jeng-Da Chai,  A. E. DePrince, III,  R. A. DiStasio Jr.,  A. Dreuw,
 B. D. Dunietz,  T. R. Furlani,  Chao-Ping Hsu,  Yousung Jung,  Jing Kong,
 D. S. Lambrecht,  WanZhen Liang,  C. Ochsenfeld,  V. A. Rassolov,
 L. V. Slipchenko,  J. E. Subotnik,  T. Van Voorhis,  J. M. Herbert,
 A. I. Krylov,  P. M. W. Gill,  M. Head-Gordon

 Contributors to earlier versions of Q-Chem not listed above:
 R. D. Adamson,  B. Austin,  J. Baker,  G. J. O. Beran,  K. Brandhorst,
 S. T. Brown,  E. F. C. Byrd,  A. K. Chakraborty,  C.-L. Cheng,
 Siu Hung Chien,  D. M. Chipman,  D. L. Crittenden,  H. Dachsel,
 R. J. Doerksen,  A. D. Dutoi,  L. Fusti-Molnar,  W. A. Goddard III,
 A. Golubeva-Zadorozhnaya,  S. R. Gwaltney,  G. Hawkins,  A. Heyden,
 S. Hirata,  G. Kedziora,  F. J. Keil,  C. Kelley,  Jihan Kim,  R. A. King,
 R. Z. Khaliullin,  P. P. Korambath,  W. Kurlancheek,  A. M. Lee,  M. S. Lee,
 S. V. Levchenko,  Ching Yeh Lin,  D. Liotard,  R. C. Lochan,  I. Lotan,
 P. E. Maslen,  N. Nair,  D. P. O'Neill,  D. Neuhauser,  E. Neuscamman,
 C. M. Oana,  R. Olson,  B. Peters,  R. Peverati,  P. A. Pieniazek,
 Y. M. Rhee,  J. Ritchie,  M. A. Rohrdanz,  E. Rosta,  N. J. Russ,
 H. F. Schaefer III,  N. E. Schultz,  N. Shenvi,  A. C. Simmonett,  A. Sodt,
 D. Stuck,  K. S. Thanthiriwatte,  V. Vanovschi,  Tao Wang,  A. Warshel,
 C. F. Williams,  Q. Wu,  X. Xu,  W. Zhang

 Please cite Q-Chem as follows:
 Y. Shao et al., Mol. Phys. 113, 184-215 (2015)
 DOI: 10.1080/00268976.2014.952696

 Q-Chem 5.2.2 for Intel X86 EM64T Linux

 Parts of Q-Chem use Armadillo 9.800.1 (Horizon Scraper).
 http://arma.sourceforge.net/

 Q-Chem begins on Sun Mar  7 03:10:22 2021

Host: node023
0

     Scratch files written to /home/ymao90/scratch/CCX_CO_+2020210307025611//
The previous job contains 0 fragments, simply inherited here

Checking the input file for inconsistencies... 	...done.

--------------------------------------------------------------
User input:
--------------------------------------------------------------

$molecule
read
$end

$rem
JOBTYPE  FREQ
METHOD  B3LYP
BASIS  6-31+G(D)
SYMMETRY  FALSE
SYM_IGNORE  TRUE
MEM_TOTAL  8000
MEM_STATIC  2000
MAX_SUB_FILE_NUM  16000
BASIS_LIN_DEP_THRESH  6
THRESH  14
SCF_CONVERGENCE  9
GEN_SCFMAN  TRUE
SCF_GUESS  READ
FD_MAT_VEC_PROD  FALSE
XC_GRID  000099000590
IDERIV   1
NL_GRID  1
MAX_SCF_CYCLES  200
ISOTOPES TRUE
$end

$isotopes
1 0
1
 21 2.0141018
$end

$multipole_field
Z   -0.003890
$end
--------------------------------------------------------------

 Total energy in the final basis set =     -404.5827491136
   10    -404.5827493452      3.60e-10  Convergence criterion met
 Total energy in the final basis set =     -404.5827493452
   10    -404.5827490736      2.67e-10  Convergence criterion met
 Total energy in the final basis set =     -404.5827490736
   10    -404.5827492290      4.23e-10  Convergence criterion met
 Total energy in the final basis set =     -404.5827492290
    9    -404.5827489748      7.73e-10  Convergence criterion met
 Total energy in the final basis set =     -404.5827489748
   10    -404.5827488538      8.06e-10  Convergence criterion met
 Total energy in the final basis set =     -404.5827488538
   10    -404.5827483109      5.43e-10  Convergence criterion met
 Total energy in the final basis set =     -404.5827483109
   10    -404.5827486335      8.18e-10  Convergence criterion met
 Total energy in the final basis set =     -404.5827486335

                    Orbital Energies (a.u.)
 --------------------------------------------------------------

 Alpha MOs
 -- Occupied --
-19.1285 -14.3766 -10.2924 -10.2367 -10.2058 -10.1980 -10.1940 -10.1892
-10.1882  -1.0410  -0.9371  -0.8376  -0.7564  -0.7527  -0.6457  -0.6301
 -0.5919  -0.5745  -0.5388  -0.4904  -0.4760  -0.4565  -0.4511  -0.4234
 -0.4115  -0.4055  -0.3923  -0.3816  -0.3612  -0.3573  -0.3354  -0.3270
 -0.3187  -0.2652  -0.2617

          Ground-State Mulliken Net Atomic Charges

     Atom                 Charge (a.u.)
  ----------------------------------------
      1 C                    -0.192211
      2 C                    -0.367727
      3 C                    -0.432832
      4 C                    -0.398976
      5 C                    -0.408018
      6 C                    -0.432383
      7 H                     0.209228
      8 H                     0.233833
      9 H                     0.186250
     10 H                     0.239362
     11 H                     0.216881
     12 H                     0.191834
     13 H                     0.200594
     14 H                     0.182694
     15 H                     0.217839
     16 H                     0.197956
     17 H                     0.190813
     18 N                    -0.422254
     19 H                     0.388829
     20 C                     0.331677
     21 H                     0.135304
     22 O                    -0.468690
  ----------------------------------------
  Sum of atomic charges =     0.000000

                    Cartesian Multipole Moments
 -----------------------------------------------------------------
    Charge (ESU x 10^10)
                 0.0000
    Dipole Moment (Debye)
         X       2.7616      Y      -1.1040      Z      -1.9091
       Tot       3.5341
    Quadrupole Moments (Debye-Ang)
        XX     -51.8650     XY       3.8347     YY     -56.3735
        XZ       2.2864     YZ       0.3395     ZZ     -57.7928

             Standard Nuclear Orientation (Angstroms)
    I     Atom           X                Y                Z
 ----------------------------------------------------------------
    1      C       1.9544126660     2.7228139491    -0.5284167711
    2      C       2.1695004990     1.2228238599    -0.2555697961
    3      C       3.4745855119     0.7249749736    -0.8942322077
    4      C       4.6834988781     1.5582385947    -0.4374502544
    5      C       4.4681158344     3.0598454131    -0.6863044468
    6      C       3.1587462241     3.5484652214    -0.0477279493
    7      H       3.6294914016    -0.3347513650    -0.6491266694
    8      H       2.2239647257     1.0778589032     0.8318149828
    9      H       1.8113219183     2.8658194550    -1.6111809306
   10      H       1.0361397411     3.0503705090    -0.0308794592
   11      H       4.8524225165     1.3888627455     0.6352927163
   12      H       5.5879458456     1.2087866009    -0.9527677987
   13      H       5.3204258109     3.6302313935    -0.2952084073
   14      H       4.4343139678     3.2472628781    -1.7718332805
   15      H       3.2371040060     3.4738538922     1.0464944376
   16      H       2.9956660314     4.6103129858    -0.2720701267
   17      H       3.3808356558     0.7943686701    -1.9913684728
   18      N       1.0497449068     0.4064857473    -0.7424894403
   19      H       1.2234508848    -0.2480994696    -1.4951921461
   20      C      -0.1638217550     0.3435656328    -0.1280876928
   21      H      -0.8432945811    -0.3903003184    -0.6065468964
   22      O      -0.5001636046     1.0112764683     0.8374547156
 ----------------------------------------------------------------

 Frequency:        43.24                 106.98                 161.79
 Force Cnst:      0.0044                 0.0232                 0.0390
 Red. Mass:       4.0369                 3.4445                 2.5269
 IR Intens:       11.835                  7.789                 22.836
 Frequency:       212.38                 230.92                 329.51
 Force Cnst:      0.0750                 0.0571                 0.1807
 Red. Mass:       2.8221                 1.8165                 2.8243
 IR Intens:       28.619                  1.625                  3.506
 Frequency:       340.80                 406.40                 435.93
 Force Cnst:      0.1555                 0.3965                 0.1937
 Red. Mass:       2.2724                 4.0747                 1.7297
 IR Intens:       16.107                  6.099                  9.997
 Frequency:       446.82                 506.96                 542.28
 Force Cnst:      0.3452                 0.2108                 0.3194
 Red. Mass:       2.9345                 1.3923                 1.8432
 IR Intens:        2.467                  8.151                  1.173
 Frequency:       763.48                 800.42                 825.13
 Force Cnst:      1.2382                 0.5644                 1.1029
 Red. Mass:       3.6053                 1.4952                 2.7494
 IR Intens:        3.717                  0.269                  1.506
 Frequency:       853.37                 904.18                 916.62
 Force Cnst:      0.9251                 0.8422                 0.8804
 Red. Mass:       2.1560                 1.7485                 1.7786
 IR Intens:        1.711                  4.151                  0.683
 Frequency:       940.81                 970.55                1012.65
 Force Cnst:      0.8347                 1.3443                 0.9793
 Red. Mass:       1.6005                 2.4222                 1.6209
 IR Intens:        1.627                  4.297                  0.151
 Frequency:      1043.08                1063.78                1078.81
 Force Cnst:      1.1573                 1.2227                 1.3426
 Red. Mass:       1.8054                 1.8338                 1.9579
 IR Intens:        1.197                  1.115                  2.558
 Frequency:      1098.97                1106.31                1177.90
 Force Cnst:      1.0731                 1.2835                 1.8613
 Red. Mass:       1.5081                 1.7799                 2.2769
 IR Intens:        0.513                  1.157                  0.313
 Frequency:      1206.49                1230.73                1284.21
 Force Cnst:      1.3359                 1.5864                 1.3267
 Red. Mass:       1.5577                 1.7777                 1.3654
 IR Intens:       35.267                 49.345                  3.834
 Frequency:      1292.58                1300.88                1344.23
 Force Cnst:      1.2316                 1.2428                 1.3737
 Red. Mass:       1.2511                 1.2465                 1.2903
 IR Intens:        5.487                  1.203                  4.839
 Frequency:      1357.69                1379.99                1386.20
 Force Cnst:      1.3943                 1.5731                 1.5210
 Red. Mass:       1.2838                 1.4021                 1.3435
 IR Intens:        1.309                  0.852                  2.247
 Frequency:      1391.43                1396.77                1417.34
 Force Cnst:      1.7054                 1.6766                 1.7047
 Red. Mass:       1.4950                 1.4586                 1.4403
 IR Intens:        0.195                  9.284                  5.417
 Frequency:      1426.27                1507.05                1508.55
 Force Cnst:      1.4507                 1.4520                 1.4653
 Red. Mass:       1.2104                 1.0851                 1.0928
 IR Intens:        3.749                  0.501                  3.834
 Frequency:      1512.07                1517.58                1525.11
 Force Cnst:      1.4903                 1.4689                 2.0142
 Red. Mass:       1.1063                 1.0825                 1.4698
 IR Intens:        7.214                 12.842                122.863
 Frequency:      1532.48                1782.74                2954.32
 Force Cnst:      1.7771                14.0941                 5.5786
 Red. Mass:       1.2843                 7.5268                 1.0848
 IR Intens:       78.991                350.791                151.196
 Frequency:      2987.65                2999.57                3008.88
 Force Cnst:      5.6188                 5.6746                 5.7166
 Red. Mass:       1.0684                 1.0705                 1.0717
 IR Intens:       30.539                 31.634                 44.277
 Frequency:      3030.97                3032.49                3045.55
 Force Cnst:      5.7518                 5.7603                 5.9186
 Red. Mass:       1.0627                 1.0632                 1.0830
 IR Intens:       20.989                 21.299                 24.725
 Frequency:      3059.35                3066.09                3069.94
 Force Cnst:      6.0226                 6.0575                 6.1025
 Red. Mass:       1.0921                 1.0936                 1.0990
 IR Intens:       49.903                 58.318                 37.592
 Frequency:      3075.15                3109.18                3597.16
 Force Cnst:      6.1446                 6.2241                 8.2181
 Red. Mass:       1.1028                 1.0928                 1.0780
 IR Intens:       91.919                 13.180                 12.452
 Frequency:        43.17                 105.45                 150.47
 Force Cnst:      0.0045                 0.0226                 0.0405
 Red. Mass:       4.0807                 3.4552                 3.0394
 IR Intens:       11.835                  7.894                 20.677
 Frequency:       207.68                 230.49                 328.65
 Force Cnst:      0.0840                 0.0565                 0.1918
 Red. Mass:       3.3073                 1.8064                 3.0133
 IR Intens:       20.484                  0.484                  3.078
 Frequency:       340.35                 402.64                 429.65
 Force Cnst:      0.1509                 0.4020                 0.1695
 Red. Mass:       2.2108                 4.2085                 1.5588
 IR Intens:       13.603                  6.155                 19.744
 Frequency:       445.86                 490.44                 537.30
 Force Cnst:      0.3469                 0.2147                 0.3059
 Red. Mass:       2.9621                 1.5148                 1.7984
 IR Intens:        1.901                  9.226                  1.038
 Frequency:       755.65                 800.30                 822.21
 Force Cnst:      1.2315                 0.5679                 1.0470
 Red. Mass:       3.6605                 1.5048                 2.6286
 IR Intens:        3.849                  0.264                  1.231
 Frequency:       852.03                 856.89                 903.79
 Force Cnst:      0.9467                 1.7718                 0.8393
 Red. Mass:       2.2134                 4.0957                 1.7440
 IR Intens:        1.702                  0.858                  3.911
 Frequency:       914.24                 935.42                 947.79
 Force Cnst:      0.9498                 0.8755                 1.0683
 Red. Mass:       1.9286                 1.6981                 2.0184
 IR Intens:        0.357                  4.587                  1.845
 Frequency:      1019.44                1043.20                1067.34
 Force Cnst:      1.4048                 1.1674                 0.9437
 Red. Mass:       2.2943                 1.8207                 1.4060
 IR Intens:        0.793                  1.079                  0.440
 Frequency:      1098.89                1102.74                1127.98
 Force Cnst:      1.0098                 1.3748                 2.1057
 Red. Mass:       1.4193                 1.9189                 2.8089
 IR Intens:        0.321                  1.435                 10.911
 Frequency:      1180.70                1217.25                1231.20
 Force Cnst:      1.9255                 1.4363                 1.8023
 Red. Mass:       2.3443                 1.6453                 2.0180
 IR Intens:        1.711                  9.510                 59.615
 Frequency:      1283.87                1292.58                1300.82
 Force Cnst:      1.3192                 1.2314                 1.2426
 Red. Mass:       1.3584                 1.2510                 1.2463
 IR Intens:        2.358                  5.441                  1.291
 Frequency:      1343.52                1357.39                1379.95
 Force Cnst:      1.3605                 1.3915                 1.5725
 Red. Mass:       1.2793                 1.2818                 1.4015
 IR Intens:        4.030                  0.919                  0.788
 Frequency:      1386.12                1391.39                1396.77
 Force Cnst:      1.5181                 1.7041                 1.6773
 Red. Mass:       1.3410                 1.4940                 1.4592
 IR Intens:        2.030                  0.183                  9.381
 Frequency:      1417.38                1507.04                1508.51
 Force Cnst:      1.6898                 1.4525                 1.4674
 Red. Mass:       1.4276                 1.0855                 1.0945
 IR Intens:        4.564                  0.695                  5.417
 Frequency:      1511.71                1517.58                1520.46
 Force Cnst:      1.5162                 1.4692                 2.1414
 Red. Mass:       1.1261                 1.0828                 1.5721
 IR Intens:       12.685                 13.511                138.050
 Frequency:      1531.23                1761.18                2185.68
 Force Cnst:      1.5952                15.8571                 6.8451
 Red. Mass:       1.1547                 8.6769                 2.4320
 IR Intens:       26.876                374.693                116.524
 Frequency:      2987.65                2999.57                3008.87
 Force Cnst:      5.6188                 5.6746                 5.7166
 Red. Mass:       1.0684                 1.0705                 1.0717
 IR Intens:       29.187                 31.721                 43.340
 Frequency:      3030.97                3032.49                3045.54
 Force Cnst:      5.7518                 5.7603                 5.9185
 Red. Mass:       1.0626                 1.0632                 1.0830
 IR Intens:       21.133                 21.276                 25.752
 Frequency:      3059.33                3066.09                3069.93
 Force Cnst:      6.0226                 6.0575                 6.1026
 Red. Mass:       1.0921                 1.0936                 1.0990
 IR Intens:       49.660                 58.661                 38.028
 Frequency:      3075.15                3109.18                3597.10
 Force Cnst:      6.1446                 6.2241                 8.2176
 Red. Mass:       1.1028                 1.0928                 1.0779
 IR Intens:       91.903                 13.121                 12.543

 STANDARD THERMODYNAMIC QUANTITIES AT   298.18 K  AND     1.00 ATM

   This Molecule has  0 Imaginary Frequencies
   Zero point vibrational energy:      121.891 kcal/mol

   Atom    1 Element C  Has Mass   12.00000
   Atom    2 Element C  Has Mass   12.00000
   Atom    3 Element C  Has Mass   12.00000
   Atom    4 Element C  Has Mass   12.00000
   Atom    5 Element C  Has Mass   12.00000
   Atom    6 Element C  Has Mass   12.00000
   Atom    7 Element H  Has Mass    1.00783
   Atom    8 Element H  Has Mass    1.00783
   Atom    9 Element H  Has Mass    1.00783
   Atom   10 Element H  Has Mass    1.00783
   Atom   11 Element H  Has Mass    1.00783
   Atom   12 Element H  Has Mass    1.00783
   Atom   13 Element H  Has Mass    1.00783
   Atom   14 Element H  Has Mass    1.00783
   Atom   15 Element H  Has Mass    1.00783
   Atom   16 Element H  Has Mass    1.00783
   Atom   17 Element H  Has Mass    1.00783
   Atom   18 Element N  Has Mass   14.00307
   Atom   19 Element H  Has Mass    1.00783
   Atom   20 Element C  Has Mass   12.00000
   Atom   21 Element H  Has Mass    2.01410
   Atom   22 Element O  Has Mass   15.99491
   Molecular Mass:   128.106042 amu
   Principal axes and moments of inertia in amu*Bohr^2:
                             1           2           3
    Eigenvalues --      537.06331  1897.60576  2241.46102
          X               0.90394    -0.35275     0.24178
          Y               0.40636     0.88465    -0.22860
          Z              -0.13325     0.30489     0.94302
   Rotational Symmetry Number is   1
   The Molecule is an Asymmetric Top
   Translational Enthalpy:        0.889 kcal/mol
   Rotational Enthalpy:           0.889 kcal/mol
   Vibrational Enthalpy:        125.798 kcal/mol
   gas constant (RT):             0.593 kcal/mol
   Translational Entropy:        40.457  cal/mol.K
   Rotational Entropy:           29.214  cal/mol.K
   Vibrational Entropy:          23.731  cal/mol.K

   Total Enthalpy:              128.168 kcal/mol
   Total Entropy:                93.402  cal/mol.K

 Total job time:  5056.43s(wall), 80174.35s(cpu)
        *  Thank you very much for using Q-Chem.  Have a nice day.  *
