 Q-Chem 5.2 (devel), Q-Chem, Inc., Pleasanton, CA (2019)
 Q-Chem 5.2.2 for Intel X86 EM64T Linux

User input:
--------------------------------------------------------------
$molecule
0 1
C      1.9839655798    2.8343873569   -0.6530035790
C      2.0889665948    1.3399289492   -0.2973932582
C      3.4017166944    0.7321441035   -0.8222227424
C      4.6254659785    1.5200300416   -0.3255741318
C      4.5210827926    3.0122209378   -0.6783481608
C      3.2094896156    3.6188525050   -0.1554554411
H      3.4653882129   -0.3186255299   -0.5134835234
H      2.0538505535    1.2303619181    0.7916336585
H      1.9041773336    2.9373830819   -1.7471760654
H      1.0604862058    3.2447823031   -0.2264495779
H      4.7056113531    1.4098609561    0.7662015896
H      5.5416784391    1.0893334561   -0.7496610014
H      5.3807748665    3.5587419877   -0.2692766409
H      4.5659637339    3.1311627355   -1.7719372538
H      3.2192612515    3.6121018079    0.9447339030
H      3.1260878858    4.6703627905   -0.4590864625
H      3.3863457527    0.7409636912   -1.9242196110
N      0.9315723625    0.5939302253   -0.7942938700
H      0.8024957372    0.5217251348   -1.7968919912
C      0.0000000000    0.0000000000    0.0000000000
H     -0.7899738588   -0.5065817117   -0.5873052394
O     -0.0000000000    0.0000000000    1.2238135054
$end

$rem
JOBTYPE  OPT
METHOD  B3LYP
BASIS  6-31+G(D)
SYMMETRY  FALSE
SYM_IGNORE  TRUE
MEM_TOTAL  8000
MEM_STATIC  2000
MAX_SUB_FILE_NUM  16000
BASIS_LIN_DEP_THRESH  6
THRESH  14
SCF_CONVERGENCE  9
GEN_SCFMAN  TRUE
SCF_GUESS  SAD
FD_MAT_VEC_PROD  FALSE
XC_GRID  000099000590
NL_GRID  1
MAX_SCF_CYCLES  200
GEOM_OPT_TOL_GRADIENT  100
GEOM_OPT_TOL_DISPLACEMENT  100
GEOM_OPT_TOL_ENERGY  10
$end

$multipole_field
Z   0.007779
$end

--------------------------------------------------------------

   16    -404.6007783251      3.25e-10  Convergence criterion met
 Total energy in the final basis set =     -404.6007783251
   11    -404.6009341864      8.09e-10  Convergence criterion met
 Total energy in the final basis set =     -404.6009341864
   11    -404.6009470521      4.74e-10  Convergence criterion met
 Total energy in the final basis set =     -404.6009470521
   10    -404.6009446288      8.71e-10  Convergence criterion met
 Total energy in the final basis set =     -404.6009446288
   10    -404.6009478672      4.52e-10  Convergence criterion met
 Total energy in the final basis set =     -404.6009478672
    9    -404.6009479382      6.71e-10  Convergence criterion met
 Total energy in the final basis set =     -404.6009479382
 Final energy is   -404.600947938190
 **  OPTIMIZATION CONVERGED  **
 Total job time:  252.40s(wall), 3961.70s(cpu)
        *  Thank you very much for using Q-Chem.  Have a nice day.  *

User input: 2 of 2

                  Welcome to Q-Chem
     A Quantum Leap Into The Future Of Chemistry

 Q-Chem 5.2 (devel), Q-Chem, Inc., Pleasanton, CA (2019)

 Yihan Shao,  Zhengting Gan,  E. Epifanovsky,  A. T. B. Gilbert,  M. Wormit,
 J. Kussmann,  A. W. Lange,  A. Behn,  Jia Deng,  Xintian Feng,  D. Ghosh,
 M. Goldey,  P. R. Horn,  L. D. Jacobson,  I. Kaliman,  T. Kus,  A. Landau,
 Jie Liu,  E. I. Proynov,  R. M. Richard,  R. P. Steele,  E. J. Sundstrom,
 H. L. Woodcock III,  P. M. Zimmerman,  D. Zuev,  B. Alam,  B. Albrecht,
 E. Alguire,  S. A. Baeppler,  D. Barton,  Z. Benda,  Y. A. Bernard,
 E. J. Berquist,  K. B. Bravaya,  H. Burton,  K. Carter-Fenk,  D. Casanova,
 Chun-Min Chang,  Yunqing Chen,  A. Chien,  K. D. Closser,  M. P. Coons,
 S. Coriani,  S. Dasgupta,  A. L. Dempwolff,  M. Diedenhofen,  Hainam Do,
 R. G. Edgar,  Po-Tung Fang,  S. Faraji,  S. Fatehi,  Qingguo Feng,
 J. Fosso-Tande,  J. Gayvert,  Qinghui Ge,  A. Ghysels,  G. Gidofalvi,
 J. Gomes,  J. Gonthier,  A. Gunina,  D. Hait,  M. W. D. Hanson-Heine,
 P. H. P. Harbach,  A. W. Hauser,  M. F. Herbst,  J. E. Herr,
 E. G. Hohenstein,  Z. C. Holden,  Kerwin Hui,  B. C. Huynh,  T.-C. Jagau,
 Hyunjun Ji,  B. Kaduk,  K. Khistyaev,  Jaehoon Kim,  P. Klunzinger,  K. Koh,
 D. Kosenkov,  L. Koulias,  T. Kowalczyk,  C. M. Krauter,  A. Kunitsa,
 Ka Un Lao,  A. Laurent,  K. V. Lawler,  Joonho Lee,  D. Lefrancois,
 S. Lehtola,  D. S. Levine,  Yi-Pei Li,  You-Sheng Lin,  Fenglai Liu,
 Kuan-Yu Liu,  E. Livshits,  M. Loipersberger,  A. Luenser,  P. Manohar,
 E. Mansoor,  S. F. Manzer,  Shan-Ping Mao,  Yuezhi Mao,  N. Mardirossian,
 A. V. Marenich,  T. Markovich,  L. A. Martinez-Martinez,  S. A. Maurer,
 N. J. Mayhall,  S. C. McKenzie,  J.-M. Mewes,  P. Morgante,  A. F. Morrison,
 J. W. Mullinax,  K. Nanda,  T. S. Nguyen-Beck,  R. Olivares-Amaya,
 J. A. Parkhill,  S. K. Paul,  F. Pavosevic,  Zheng Pei,  T. M. Perrine,
 F. Plasser,  P. Pokhilko,  S. Prager,  A. Prociuk,  E. Ramos,  B. Rana,
 D. R. Rehn,  F. Rob,  M. Scheurer,  M. Schneider,  N. Sergueev,
 S. M. Sharada,  S. Sharma,  D. W. Small,  T. Stauch,  C. J. Stein,
 T. Stein,  Yu-Chuan Su,  S. P. Veccham,  Zhen Tao,  A. J. W. Thom,
 A. Tkatchenko,  T. Tsuchimochi,  N. M. Tubman,  L. Vogt,  M. L. Vidal,
 O. Vydrov,  M. A. Watson,  J. Wenzel,  M. de Wergifosse,  T. A. Wesolowski,
 A. White,  J. Witte,  A. Yamada,  Jun Yang,  K. Yao,  S. Yeganeh,
 S. R. Yost,  Zhi-Qiang You,  A. Zech,  Igor Ying Zhang,  Xing Zhang,
 Yan Zhao,  Ying Zhu,  B. R. Brooks,  G. K. L. Chan,  C. J. Cramer,
 M. S. Gordon,  W. J. Hehre,  A. Klamt,  M. W. Schmidt,  C. D. Sherrill,
 D. G. Truhlar,  A. Aspuru-Guzik,  R. Baer,  A. T. Bell,  N. A. Besley,
 Jeng-Da Chai,  A. E. DePrince, III,  R. A. DiStasio Jr.,  A. Dreuw,
 B. D. Dunietz,  T. R. Furlani,  Chao-Ping Hsu,  Yousung Jung,  Jing Kong,
 D. S. Lambrecht,  WanZhen Liang,  C. Ochsenfeld,  V. A. Rassolov,
 L. V. Slipchenko,  J. E. Subotnik,  T. Van Voorhis,  J. M. Herbert,
 A. I. Krylov,  P. M. W. Gill,  M. Head-Gordon

 Contributors to earlier versions of Q-Chem not listed above:
 R. D. Adamson,  B. Austin,  J. Baker,  G. J. O. Beran,  K. Brandhorst,
 S. T. Brown,  E. F. C. Byrd,  A. K. Chakraborty,  C.-L. Cheng,
 Siu Hung Chien,  D. M. Chipman,  D. L. Crittenden,  H. Dachsel,
 R. J. Doerksen,  A. D. Dutoi,  L. Fusti-Molnar,  W. A. Goddard III,
 A. Golubeva-Zadorozhnaya,  S. R. Gwaltney,  G. Hawkins,  A. Heyden,
 S. Hirata,  G. Kedziora,  F. J. Keil,  C. Kelley,  Jihan Kim,  R. A. King,
 R. Z. Khaliullin,  P. P. Korambath,  W. Kurlancheek,  A. M. Lee,  M. S. Lee,
 S. V. Levchenko,  Ching Yeh Lin,  D. Liotard,  R. C. Lochan,  I. Lotan,
 P. E. Maslen,  N. Nair,  D. P. O'Neill,  D. Neuhauser,  E. Neuscamman,
 C. M. Oana,  R. Olson,  B. Peters,  R. Peverati,  P. A. Pieniazek,
 Y. M. Rhee,  J. Ritchie,  M. A. Rohrdanz,  E. Rosta,  N. J. Russ,
 H. F. Schaefer III,  N. E. Schultz,  N. Shenvi,  A. C. Simmonett,  A. Sodt,
 D. Stuck,  K. S. Thanthiriwatte,  V. Vanovschi,  Tao Wang,  A. Warshel,
 C. F. Williams,  Q. Wu,  X. Xu,  W. Zhang

 Please cite Q-Chem as follows:
 Y. Shao et al., Mol. Phys. 113, 184-215 (2015)
 DOI: 10.1080/00268976.2014.952696

 Q-Chem 5.2.2 for Intel X86 EM64T Linux

 Parts of Q-Chem use Armadillo 9.800.1 (Horizon Scraper).
 http://arma.sourceforge.net/

 Q-Chem begins on Sun Mar  7 03:00:26 2021

Host: node026
0

     Scratch files written to /home/ymao90/scratch/CCX_CO_-4020210307025611//
The previous job contains 0 fragments, simply inherited here

Checking the input file for inconsistencies... 	...done.

--------------------------------------------------------------
User input:
--------------------------------------------------------------

$molecule
read
$end

$rem
JOBTYPE  FREQ
METHOD  B3LYP
BASIS  6-31+G(D)
SYMMETRY  FALSE
SYM_IGNORE  TRUE
MEM_TOTAL  8000
MEM_STATIC  2000
MAX_SUB_FILE_NUM  16000
BASIS_LIN_DEP_THRESH  6
THRESH  14
SCF_CONVERGENCE  9
GEN_SCFMAN  TRUE
SCF_GUESS  READ
FD_MAT_VEC_PROD  FALSE
XC_GRID  000099000590
IDERIV   1
NL_GRID  1
MAX_SCF_CYCLES  200
ISOTOPES TRUE
$end

$isotopes
1 0
1
 21 2.0141018
$end

$multipole_field
Z   0.007779
$end
--------------------------------------------------------------

    2    -404.6009479382      3.46e-10  Convergence criterion met
 Total energy in the final basis set =     -404.6009479382
 Total energy in the final basis set =     -404.6009479652
   10    -404.6009474360      2.39e-10  Convergence criterion met
 Total energy in the final basis set =     -404.6009474360
   10    -404.6009478866      2.13e-10  Convergence criterion met
 Total energy in the final basis set =     -404.6009478866
   10    -404.6009477278      3.27e-10  Convergence criterion met
 Total energy in the final basis set =     -404.6009477278
    9    -404.6009478972      7.58e-10  Convergence criterion met
 Total energy in the final basis set =     -404.6009478972
   10    -404.6009478054      3.58e-10  Convergence criterion met
 Total energy in the final basis set =     -404.6009478054
   10    -404.6009467861      6.08e-10  Convergence criterion met
 Total energy in the final basis set =     -404.6009467861
   10    -404.6009463779      9.37e-10  Convergence criterion met
 Total energy in the final basis set =     -404.6009463779

                    Orbital Energies (a.u.)
 --------------------------------------------------------------

 Alpha MOs
 -- Occupied --
-19.1279 -14.3704 -10.2904 -10.2284 -10.1889 -10.1880 -10.1863 -10.1862
-10.1830  -1.0361  -0.9316  -0.8292  -0.7469  -0.7458  -0.6389  -0.6167
 -0.5944  -0.5685  -0.5276  -0.4853  -0.4622  -0.4473  -0.4418  -0.4187
 -0.4157  -0.3996  -0.3840  -0.3747  -0.3508  -0.3499  -0.3276  -0.3181
 -0.3137  -0.2634  -0.2581

          Ground-State Mulliken Net Atomic Charges

     Atom                 Charge (a.u.)
  ----------------------------------------
      1 C                    -0.231508
      2 C                    -0.509086
      3 C                    -0.253320
      4 C                    -0.444300
      5 C                    -0.355771
      6 C                    -0.448317
      7 H                     0.206781
      8 H                     0.221926
      9 H                     0.221843
     10 H                     0.203825
     11 H                     0.178178
     12 H                     0.209217
     13 H                     0.187628
     14 H                     0.223780
     15 H                     0.177600
     16 H                     0.205414
     17 H                     0.221913
     18 N                    -0.379297
     19 H                     0.418252
     20 C                     0.323304
     21 H                     0.158424
     22 O                    -0.536487
  ----------------------------------------
  Sum of atomic charges =     0.000000

                    Cartesian Multipole Moments
 -----------------------------------------------------------------
    Charge (ESU x 10^10)
                -0.0000
    Dipole Moment (Debye)
         X       1.8051      Y       1.1269      Z      -5.4433
       Tot       5.8444
    Quadrupole Moments (Debye-Ang)
        XX     -51.2506     XY       3.5617     YY     -54.6093
        XZ      -4.0920     YZ      -2.7408     ZZ     -56.9639

             Standard Nuclear Orientation (Angstroms)
    I     Atom           X                Y                Z
 ----------------------------------------------------------------
    1      C       1.9834104390     2.8319276989    -0.6707387580
    2      C       2.0913077916     1.3389954238    -0.3103639726
    3      C       3.4021058672     0.7335292060    -0.8421514071
    4      C       4.6218975084     1.5160934087    -0.3265416529
    5      C       4.5216972630     3.0127180816    -0.6624277071
    6      C       3.2021069391     3.6154567570    -0.1543192795
    7      H       3.4650086821    -0.3217419743    -0.5482975204
    8      H       2.0665620711     1.2350983896     0.7801408907
    9      H       1.9185725443     2.9373122867    -1.7636290630
   10      H       1.0532289693     3.2415045738    -0.2571560173
   11      H       4.6921694389     1.3916696356     0.7668909146
   12      H       5.5403512484     1.0915911100    -0.7505928164
   13      H       5.3761335297     3.5550790747    -0.2355250291
   14      H       4.5845984320     3.1446083575    -1.7515266173
   15      H       3.1961124316     3.6029703445     0.9484359243
   16      H       3.1223830307     4.6671883181    -0.4571385949
   17      H       3.3942016281     0.7564421916    -1.9419352752
   18      N       0.9285964162     0.5883720671    -0.7886025391
   19      H       0.7923411769     0.5024065858    -1.7904370146
   20      C       0.0064674483     0.0096847041     0.0164649329
   21      H      -0.7886828991    -0.5027343134    -0.5541823486
   22      O       0.0138371281     0.0248948133     1.2482370568
 ----------------------------------------------------------------

 Frequency:        27.55                 104.31                 204.04
 Force Cnst:      0.0022                 0.0229                 0.0563
 Red. Mass:       4.8149                 3.5694                 2.2934
 IR Intens:        6.847                  5.086                 29.838
 Frequency:       215.86                 228.24                 333.82
 Force Cnst:      0.0953                 0.0548                 0.1247
 Red. Mass:       3.4705                 1.7854                 1.8992
 IR Intens:       10.482                  0.041                  0.256
 Frequency:       399.18                 408.32                 451.76
 Force Cnst:      0.3469                 0.3689                 0.2690
 Red. Mass:       3.6950                 3.7557                 2.2368
 IR Intens:        9.334                 17.721                  0.498
 Frequency:       462.24                 535.05                 590.85
 Force Cnst:      0.4464                 0.2739                 0.2334
 Red. Mass:       3.5463                 1.6236                 1.1346
 IR Intens:        5.954                  1.654                 55.569
 Frequency:       747.18                 801.33                 823.75
 Force Cnst:      1.3659                 0.5465                 0.9729
 Red. Mass:       4.1527                 1.4444                 2.4335
 IR Intens:        4.126                  0.066                  0.756
 Frequency:       849.48                 905.50                 920.42
 Force Cnst:      0.8607                 0.9360                 0.9837
 Red. Mass:       2.0243                 1.9375                 1.9708
 IR Intens:        0.901                  7.574                  0.592
 Frequency:       936.83                 968.44                1021.45
 Force Cnst:      0.7573                 1.2975                 0.9845
 Red. Mass:       1.4645                 2.3481                 1.6015
 IR Intens:        0.536                  3.012                  0.128
 Frequency:      1040.19                1071.51                1078.88
 Force Cnst:      1.1495                 0.9504                 2.5268
 Red. Mass:       1.8031                 1.4049                 3.6845
 IR Intens:        1.173                  1.118                 10.263
 Frequency:      1095.38                1103.22                1178.18
 Force Cnst:      0.8536                 1.7328                 1.8563
 Red. Mass:       1.2075                 2.4164                 2.2698
 IR Intens:        0.016                  1.287                  1.374
 Frequency:      1217.65                1229.95                1282.58
 Force Cnst:      1.2643                 1.6667                 1.2738
 Red. Mass:       1.4473                 1.8699                 1.3142
 IR Intens:        0.700                 65.370                 10.326
 Frequency:      1298.74                1301.24                1347.15
 Force Cnst:      1.2693                 1.3389                 1.3763
 Red. Mass:       1.2773                 1.3421                 1.2871
 IR Intens:        2.018                  5.755                  2.335
 Frequency:      1351.85                1377.30                1388.86
 Force Cnst:      1.3322                 1.5328                 1.5280
 Red. Mass:       1.2373                 1.3714                 1.3445
 IR Intens:       16.393                  1.140                  0.744
 Frequency:      1391.29                1395.81                1411.93
 Force Cnst:      1.6838                 1.6876                 1.7328
 Red. Mass:       1.4764                 1.4702                 1.4752
 IR Intens:        9.622                  0.209                  0.936
 Frequency:      1430.13                1504.73                1509.14
 Force Cnst:      1.4677                 1.4482                 1.4639
 Red. Mass:       1.2180                 1.0856                 1.0910
 IR Intens:       20.727                  0.399                  5.158
 Frequency:      1510.52                1515.42                1528.98
 Force Cnst:      1.4742                 1.4716                 1.5141
 Red. Mass:       1.0966                 1.0876                 1.0992
 IR Intens:        5.381                 12.394                  0.987
 Frequency:      1559.47                1744.55                2989.33
 Force Cnst:      2.6037                11.9689                 5.6406
 Red. Mass:       1.8171                 6.6748                 1.0714
 IR Intens:      187.452                437.487                 17.444
 Frequency:      2993.29                3003.85                3028.31
 Force Cnst:      5.6577                 5.7775                 5.7440
 Red. Mass:       1.0717                 1.0868                 1.0631
 IR Intens:       76.304                 93.219                  9.707
 Frequency:      3031.12                3032.81                3065.75
 Force Cnst:      5.7560                 5.7558                 6.0627
 Red. Mass:       1.0633                 1.0621                 1.0948
 IR Intens:       35.675                 21.805                 66.450
 Frequency:      3068.91                3070.21                3075.25
 Force Cnst:      6.0436                 6.0749                 6.1051
 Red. Mass:       1.0891                 1.0938                 1.0957
 IR Intens:       28.940                 39.651                 36.637
 Frequency:      3075.74                3089.75                3580.91
 Force Cnst:      6.1383                 6.1577                 8.1461
 Red. Mass:       1.1013                 1.0948                 1.0782
 IR Intens:       35.282                 49.505                 31.636
 Frequency:        27.55                 103.59                 182.69
 Force Cnst:      0.0022                 0.0227                 0.0553
 Red. Mass:       4.8136                 3.5895                 2.8140
 IR Intens:        6.859                  4.973                 25.834
 Frequency:       215.01                 228.23                 333.64
 Force Cnst:      0.0994                 0.0548                 0.1251
 Red. Mass:       3.6477                 1.7857                 1.9076
 IR Intens:        8.400                  0.046                  0.232
 Frequency:       393.65                 401.26                 451.43
 Force Cnst:      0.3493                 0.3864                 0.2752
 Red. Mass:       3.8256                 4.0729                 2.2922
 IR Intens:        8.700                 11.597                  0.502
 Frequency:       458.51                 532.43                 581.22
 Force Cnst:      0.4088                 0.2711                 0.2245
 Red. Mass:       3.3005                 1.6234                 1.1280
 IR Intens:        1.673                  1.389                 67.802
 Frequency:       738.04                 801.33                 821.58
 Force Cnst:      1.3215                 0.5464                 0.9577
 Red. Mass:       4.1177                 1.4443                 2.4081
 IR Intens:        3.934                  0.064                  0.579
 Frequency:       848.47                 860.83                 905.58
 Force Cnst:      0.8740                 1.7764                 0.9320
 Red. Mass:       2.0606                 4.0687                 1.9289
 IR Intens:        1.084                  0.249                  7.521
 Frequency:       918.22                 936.95                 944.62
 Force Cnst:      1.0138                 0.7596                 1.1985
 Red. Mass:       2.0408                 1.4686                 2.2798
 IR Intens:        0.914                  0.568                  2.688
 Frequency:      1023.73                1040.79                1070.98
 Force Cnst:      1.3971                 1.1746                 0.9600
 Red. Mass:       2.2626                 1.8405                 1.4206
 IR Intens:        2.791                  0.822                  0.971
 Frequency:      1095.30                1102.81                1125.66
 Force Cnst:      0.8415                 1.7770                 2.5190
 Red. Mass:       1.1905                 2.4799                 3.3741
 IR Intens:        0.015                  1.134                 16.166
 Frequency:      1183.18                1217.32                1233.44
 Force Cnst:      2.0881                 1.2630                 1.9030
 Red. Mass:       2.5317                 1.4466                 2.1230
 IR Intens:        9.414                  0.179                 50.372
 Frequency:      1282.14                1298.69                1300.55
 Force Cnst:      1.2723                 1.2710                 1.3253
 Red. Mass:       1.3137                 1.2791                 1.3299
 IR Intens:        8.998                  2.029                  3.925
 Frequency:      1346.91                1350.73                1377.27
 Force Cnst:      1.3669                 1.3225                 1.5327
 Red. Mass:       1.2789                 1.2303                 1.3714
 IR Intens:        3.256                 13.076                  1.113
 Frequency:      1388.81                1391.30                1395.78
 Force Cnst:      1.5271                 1.6834                 1.6876
 Red. Mass:       1.3438                 1.4760                 1.4702
 IR Intens:        0.707                  9.419                  0.194
 Frequency:      1411.40                1504.73                1509.13
 Force Cnst:      1.7193                 1.4482                 1.4638
 Red. Mass:       1.4649                 1.0856                 1.0909
 IR Intens:        0.591                  0.402                  5.328
 Frequency:      1510.52                1515.39                1528.91
 Force Cnst:      1.4741                 1.4725                 1.5151
 Red. Mass:       1.0966                 1.0883                 1.1001
 IR Intens:        5.368                 12.243                  1.271
 Frequency:      1553.22                1723.03                2222.13
 Force Cnst:      2.4522                15.5485                 7.0283
 Red. Mass:       1.7252                 8.8890                 2.4158
 IR Intens:      154.230                482.417                 76.914
 Frequency:      2989.33                2993.29                3028.31
 Force Cnst:      5.6406                 5.6577                 5.7440
 Red. Mass:       1.0714                 1.0717                 1.0631
 IR Intens:       17.463                 75.898                  9.623
 Frequency:      3031.11                3032.80                3065.74
 Force Cnst:      5.7561                 5.7558                 6.0625
 Red. Mass:       1.0633                 1.0621                 1.0948
 IR Intens:       33.724                 22.292                 68.330
 Frequency:      3068.90                3070.21                3075.25
 Force Cnst:      6.0436                 6.0750                 6.1050
 Red. Mass:       1.0891                 1.0939                 1.0957
 IR Intens:       28.765                 39.431                 36.358
 Frequency:      3075.74                3089.73                3580.86
 Force Cnst:      6.1383                 6.1577                 8.1457
 Red. Mass:       1.1013                 1.0948                 1.0782
 IR Intens:       35.263                 50.547                 31.998

 STANDARD THERMODYNAMIC QUANTITIES AT   298.18 K  AND     1.00 ATM

   This Molecule has  0 Imaginary Frequencies
   Zero point vibrational energy:      122.214 kcal/mol

   Atom    1 Element C  Has Mass   12.00000
   Atom    2 Element C  Has Mass   12.00000
   Atom    3 Element C  Has Mass   12.00000
   Atom    4 Element C  Has Mass   12.00000
   Atom    5 Element C  Has Mass   12.00000
   Atom    6 Element C  Has Mass   12.00000
   Atom    7 Element H  Has Mass    1.00783
   Atom    8 Element H  Has Mass    1.00783
   Atom    9 Element H  Has Mass    1.00783
   Atom   10 Element H  Has Mass    1.00783
   Atom   11 Element H  Has Mass    1.00783
   Atom   12 Element H  Has Mass    1.00783
   Atom   13 Element H  Has Mass    1.00783
   Atom   14 Element H  Has Mass    1.00783
   Atom   15 Element H  Has Mass    1.00783
   Atom   16 Element H  Has Mass    1.00783
   Atom   17 Element H  Has Mass    1.00783
   Atom   18 Element N  Has Mass   14.00307
   Atom   19 Element H  Has Mass    1.00783
   Atom   20 Element C  Has Mass   12.00000
   Atom   21 Element H  Has Mass    2.01410
   Atom   22 Element O  Has Mass   15.99491
   Molecular Mass:   128.106042 amu
   Principal axes and moments of inertia in amu*Bohr^2:
                             1           2           3
    Eigenvalues --      544.61603  2013.39802  2208.99214
          X               0.82506    -0.52614     0.20604
          Y               0.53826     0.84277    -0.00328
          Z              -0.17192     0.11362     0.97854
   Rotational Symmetry Number is   1
   The Molecule is an Asymmetric Top
   Translational Enthalpy:        0.889 kcal/mol
   Rotational Enthalpy:           0.889 kcal/mol
   Vibrational Enthalpy:        126.015 kcal/mol
   gas constant (RT):             0.593 kcal/mol
   Translational Entropy:        40.457  cal/mol.K
   Rotational Entropy:           29.273  cal/mol.K
   Vibrational Entropy:          23.719  cal/mol.K

   Total Enthalpy:              128.385 kcal/mol
   Total Entropy:                93.448  cal/mol.K

 Total job time:  5157.64s(wall), 81596.04s(cpu)
        *  Thank you very much for using Q-Chem.  Have a nice day.  *
