 Q-Chem 5.2 (devel), Q-Chem, Inc., Pleasanton, CA (2019)
 Q-Chem 5.2.2 for Intel X86 EM64T Linux

User input:
--------------------------------------------------------------
$molecule
0 1
C      1.9839655798    2.8343873569   -0.6530035790
C      2.0889665948    1.3399289492   -0.2973932582
C      3.4017166944    0.7321441035   -0.8222227424
C      4.6254659785    1.5200300416   -0.3255741318
C      4.5210827926    3.0122209378   -0.6783481608
C      3.2094896156    3.6188525050   -0.1554554411
H      3.4653882129   -0.3186255299   -0.5134835234
H      2.0538505535    1.2303619181    0.7916336585
H      1.9041773336    2.9373830819   -1.7471760654
H      1.0604862058    3.2447823031   -0.2264495779
H      4.7056113531    1.4098609561    0.7662015896
H      5.5416784391    1.0893334561   -0.7496610014
H      5.3807748665    3.5587419877   -0.2692766409
H      4.5659637339    3.1311627355   -1.7719372538
H      3.2192612515    3.6121018079    0.9447339030
H      3.1260878858    4.6703627905   -0.4590864625
H      3.3863457527    0.7409636912   -1.9242196110
N      0.9315723625    0.5939302253   -0.7942938700
H      0.8024957372    0.5217251348   -1.7968919912
C      0.0000000000    0.0000000000    0.0000000000
H     -0.7899738588   -0.5065817117   -0.5873052394
O     -0.0000000000    0.0000000000    1.2238135054
$end

$rem
JOBTYPE  OPT
METHOD  B3LYP
BASIS  6-31+G(D)
SYMMETRY  FALSE
SYM_IGNORE  TRUE
MEM_TOTAL  8000
MEM_STATIC  2000
MAX_SUB_FILE_NUM  16000
BASIS_LIN_DEP_THRESH  6
THRESH  14
SCF_CONVERGENCE  9
GEN_SCFMAN  TRUE
SCF_GUESS  SAD
FD_MAT_VEC_PROD  FALSE
XC_GRID  000099000590
NL_GRID  1
MAX_SCF_CYCLES  200
GEOM_OPT_TOL_GRADIENT  100
GEOM_OPT_TOL_DISPLACEMENT  100
GEOM_OPT_TOL_ENERGY  10
$end

$multipole_field
Z   0.003890
$end

--------------------------------------------------------------

   16    -404.5932582180      2.64e-10  Convergence criterion met
 Total energy in the final basis set =     -404.5932582180
   11    -404.5932965083      4.93e-10  Convergence criterion met
 Total energy in the final basis set =     -404.5932965083
   10    -404.5932991218      8.32e-10  Convergence criterion met
 Total energy in the final basis set =     -404.5932991218
   10    -404.5932974742      7.29e-10  Convergence criterion met
 Total energy in the final basis set =     -404.5932974742
   10    -404.5933000700      7.10e-10  Convergence criterion met
 Total energy in the final basis set =     -404.5933000700
   10    -404.5933001786      1.64e-10  Convergence criterion met
 Total energy in the final basis set =     -404.5933001786
   11    -404.5933006520      4.48e-10  Convergence criterion met
 Total energy in the final basis set =     -404.5933006520
   10    -404.5933007266      5.20e-10  Convergence criterion met
 **  OPTIMIZATION CONVERGED  **
 Total job time:  335.22s(wall), 5259.33s(cpu)
        *  Thank you very much for using Q-Chem.  Have a nice day.  *

User input: 2 of 2

                  Welcome to Q-Chem
     A Quantum Leap Into The Future Of Chemistry

 Q-Chem 5.2 (devel), Q-Chem, Inc., Pleasanton, CA (2019)

 Yihan Shao,  Zhengting Gan,  E. Epifanovsky,  A. T. B. Gilbert,  M. Wormit,
 J. Kussmann,  A. W. Lange,  A. Behn,  Jia Deng,  Xintian Feng,  D. Ghosh,
 M. Goldey,  P. R. Horn,  L. D. Jacobson,  I. Kaliman,  T. Kus,  A. Landau,
 Jie Liu,  E. I. Proynov,  R. M. Richard,  R. P. Steele,  E. J. Sundstrom,
 H. L. Woodcock III,  P. M. Zimmerman,  D. Zuev,  B. Alam,  B. Albrecht,
 E. Alguire,  S. A. Baeppler,  D. Barton,  Z. Benda,  Y. A. Bernard,
 E. J. Berquist,  K. B. Bravaya,  H. Burton,  K. Carter-Fenk,  D. Casanova,
 Chun-Min Chang,  Yunqing Chen,  A. Chien,  K. D. Closser,  M. P. Coons,
 S. Coriani,  S. Dasgupta,  A. L. Dempwolff,  M. Diedenhofen,  Hainam Do,
 R. G. Edgar,  Po-Tung Fang,  S. Faraji,  S. Fatehi,  Qingguo Feng,
 J. Fosso-Tande,  J. Gayvert,  Qinghui Ge,  A. Ghysels,  G. Gidofalvi,
 J. Gomes,  J. Gonthier,  A. Gunina,  D. Hait,  M. W. D. Hanson-Heine,
 P. H. P. Harbach,  A. W. Hauser,  M. F. Herbst,  J. E. Herr,
 E. G. Hohenstein,  Z. C. Holden,  Kerwin Hui,  B. C. Huynh,  T.-C. Jagau,
 Hyunjun Ji,  B. Kaduk,  K. Khistyaev,  Jaehoon Kim,  P. Klunzinger,  K. Koh,
 D. Kosenkov,  L. Koulias,  T. Kowalczyk,  C. M. Krauter,  A. Kunitsa,
 Ka Un Lao,  A. Laurent,  K. V. Lawler,  Joonho Lee,  D. Lefrancois,
 S. Lehtola,  D. S. Levine,  Yi-Pei Li,  You-Sheng Lin,  Fenglai Liu,
 Kuan-Yu Liu,  E. Livshits,  M. Loipersberger,  A. Luenser,  P. Manohar,
 E. Mansoor,  S. F. Manzer,  Shan-Ping Mao,  Yuezhi Mao,  N. Mardirossian,
 A. V. Marenich,  T. Markovich,  L. A. Martinez-Martinez,  S. A. Maurer,
 N. J. Mayhall,  S. C. McKenzie,  J.-M. Mewes,  P. Morgante,  A. F. Morrison,
 J. W. Mullinax,  K. Nanda,  T. S. Nguyen-Beck,  R. Olivares-Amaya,
 J. A. Parkhill,  S. K. Paul,  F. Pavosevic,  Zheng Pei,  T. M. Perrine,
 F. Plasser,  P. Pokhilko,  S. Prager,  A. Prociuk,  E. Ramos,  B. Rana,
 D. R. Rehn,  F. Rob,  M. Scheurer,  M. Schneider,  N. Sergueev,
 S. M. Sharada,  S. Sharma,  D. W. Small,  T. Stauch,  C. J. Stein,
 T. Stein,  Yu-Chuan Su,  S. P. Veccham,  Zhen Tao,  A. J. W. Thom,
 A. Tkatchenko,  T. Tsuchimochi,  N. M. Tubman,  L. Vogt,  M. L. Vidal,
 O. Vydrov,  M. A. Watson,  J. Wenzel,  M. de Wergifosse,  T. A. Wesolowski,
 A. White,  J. Witte,  A. Yamada,  Jun Yang,  K. Yao,  S. Yeganeh,
 S. R. Yost,  Zhi-Qiang You,  A. Zech,  Igor Ying Zhang,  Xing Zhang,
 Yan Zhao,  Ying Zhu,  B. R. Brooks,  G. K. L. Chan,  C. J. Cramer,
 M. S. Gordon,  W. J. Hehre,  A. Klamt,  M. W. Schmidt,  C. D. Sherrill,
 D. G. Truhlar,  A. Aspuru-Guzik,  R. Baer,  A. T. Bell,  N. A. Besley,
 Jeng-Da Chai,  A. E. DePrince, III,  R. A. DiStasio Jr.,  A. Dreuw,
 B. D. Dunietz,  T. R. Furlani,  Chao-Ping Hsu,  Yousung Jung,  Jing Kong,
 D. S. Lambrecht,  WanZhen Liang,  C. Ochsenfeld,  V. A. Rassolov,
 L. V. Slipchenko,  J. E. Subotnik,  T. Van Voorhis,  J. M. Herbert,
 A. I. Krylov,  P. M. W. Gill,  M. Head-Gordon

 Contributors to earlier versions of Q-Chem not listed above:
 R. D. Adamson,  B. Austin,  J. Baker,  G. J. O. Beran,  K. Brandhorst,
 S. T. Brown,  E. F. C. Byrd,  A. K. Chakraborty,  C.-L. Cheng,
 Siu Hung Chien,  D. M. Chipman,  D. L. Crittenden,  H. Dachsel,
 R. J. Doerksen,  A. D. Dutoi,  L. Fusti-Molnar,  W. A. Goddard III,
 A. Golubeva-Zadorozhnaya,  S. R. Gwaltney,  G. Hawkins,  A. Heyden,
 S. Hirata,  G. Kedziora,  F. J. Keil,  C. Kelley,  Jihan Kim,  R. A. King,
 R. Z. Khaliullin,  P. P. Korambath,  W. Kurlancheek,  A. M. Lee,  M. S. Lee,
 S. V. Levchenko,  Ching Yeh Lin,  D. Liotard,  R. C. Lochan,  I. Lotan,
 P. E. Maslen,  N. Nair,  D. P. O'Neill,  D. Neuhauser,  E. Neuscamman,
 C. M. Oana,  R. Olson,  B. Peters,  R. Peverati,  P. A. Pieniazek,
 Y. M. Rhee,  J. Ritchie,  M. A. Rohrdanz,  E. Rosta,  N. J. Russ,
 H. F. Schaefer III,  N. E. Schultz,  N. Shenvi,  A. C. Simmonett,  A. Sodt,
 D. Stuck,  K. S. Thanthiriwatte,  V. Vanovschi,  Tao Wang,  A. Warshel,
 C. F. Williams,  Q. Wu,  X. Xu,  W. Zhang

 Please cite Q-Chem as follows:
 Y. Shao et al., Mol. Phys. 113, 184-215 (2015)
 DOI: 10.1080/00268976.2014.952696

 Q-Chem 5.2.2 for Intel X86 EM64T Linux

 Parts of Q-Chem use Armadillo 9.800.1 (Horizon Scraper).
 http://arma.sourceforge.net/

 Q-Chem begins on Sun Mar  7 03:01:48 2021

Host: node023
0

     Scratch files written to /home/ymao90/scratch/CCX_CO_-2020210307025611//
The previous job contains 0 fragments, simply inherited here

Checking the input file for inconsistencies... 	...done.

--------------------------------------------------------------
User input:
--------------------------------------------------------------

$molecule
read
$end

$rem
JOBTYPE  FREQ
METHOD  B3LYP
BASIS  6-31+G(D)
SYMMETRY  FALSE
SYM_IGNORE  TRUE
MEM_TOTAL  8000
MEM_STATIC  2000
MAX_SUB_FILE_NUM  16000
BASIS_LIN_DEP_THRESH  6
THRESH  14
SCF_CONVERGENCE  9
GEN_SCFMAN  TRUE
SCF_GUESS  READ
FD_MAT_VEC_PROD  FALSE
XC_GRID  000099000590
IDERIV   1
NL_GRID  1
MAX_SCF_CYCLES  200
ISOTOPES TRUE
$end

$isotopes
1 0
1
 21 2.0141018
$end

$multipole_field
Z   0.003890
$end
--------------------------------------------------------------

 Total energy in the final basis set =     -404.5933006217
   10    -404.5933003541      2.44e-10  Convergence criterion met
 Total energy in the final basis set =     -404.5933003541
   10    -404.5933006103      2.17e-10  Convergence criterion met
 Total energy in the final basis set =     -404.5933006103
   10    -404.5933005802      3.40e-10  Convergence criterion met
 Total energy in the final basis set =     -404.5933005802
    9    -404.5933006682      7.85e-10  Convergence criterion met
 Total energy in the final basis set =     -404.5933006682
   10    -404.5933006134      3.59e-10  Convergence criterion met
 Total energy in the final basis set =     -404.5933006134
   10    -404.5932994661      6.17e-10  Convergence criterion met
 Total energy in the final basis set =     -404.5932994661
   10    -404.5932992106      9.17e-10  Convergence criterion met
 Total energy in the final basis set =     -404.5932992106

                    Orbital Energies (a.u.)
 --------------------------------------------------------------

 Alpha MOs
 -- Occupied --
-19.1272 -14.3721 -10.2908 -10.2303 -10.1907 -10.1902 -10.1901 -10.1897
-10.1867  -1.0372  -0.9333  -0.8318  -0.7498  -0.7483  -0.6412  -0.6197
 -0.5968  -0.5709  -0.5298  -0.4871  -0.4647  -0.4499  -0.4443  -0.4204
 -0.4162  -0.4019  -0.3868  -0.3766  -0.3541  -0.3528  -0.3306  -0.3209
 -0.3163  -0.2626  -0.2592

          Ground-State Mulliken Net Atomic Charges

     Atom                 Charge (a.u.)
  ----------------------------------------
      1 C                    -0.231341
      2 C                    -0.521144
      3 C                    -0.260018
      4 C                    -0.433698
      5 C                    -0.370938
      6 C                    -0.437372
      7 H                     0.209293
      8 H                     0.231973
      9 H                     0.208351
     10 H                     0.208098
     11 H                     0.191402
     12 H                     0.203739
     13 H                     0.192269
     14 H                     0.209767
     15 H                     0.191239
     16 H                     0.201828
     17 H                     0.207756
     18 N                    -0.376802
     19 H                     0.406200
     20 C                     0.328620
     21 H                     0.150707
     22 O                    -0.509929
  ----------------------------------------
  Sum of atomic charges =     0.000000

                    Cartesian Multipole Moments
 -----------------------------------------------------------------
    Charge (ESU x 10^10)
                 0.0000
    Dipole Moment (Debye)
         X       1.7903      Y       1.0586      Z      -4.5399
       Tot       4.9937
    Quadrupole Moments (Debye-Ang)
        XX     -51.4330     XY       3.4815     YY     -54.6879
        XZ      -2.0222     YZ      -1.4638     ZZ     -57.3672

             Standard Nuclear Orientation (Angstroms)
    I     Atom           X                Y                Z
 ----------------------------------------------------------------
    1      C       1.9828375724     2.8284516559    -0.6585515853
    2      C       2.0935494734     1.3342784106    -0.3036344940
    3      C       3.4059885109     0.7319576758    -0.8347373482
    4      C       4.6264575098     1.5196470923    -0.3290245369
    5      C       4.5199098974     3.0143841488    -0.6706176787
    6      C       3.2036043142     3.6147899411    -0.1519084413
    7      H       3.4726095773    -0.3214242497    -0.5352680290
    8      H       2.0649769294     1.2255818354     0.7859446228
    9      H       1.9084968431     2.9343044494    -1.7516850180
   10      H       1.0555496265     3.2350200915    -0.2361926109
   11      H       4.7035738065     1.4006014353     0.7631869716
   12      H       5.5442114524     1.0950817835    -0.7552120743
   13      H       5.3763768976     3.5601298821    -0.2530668788
   14      H       4.5717494690     3.1418289772    -1.7617833927
   15      H       3.2072462303     3.6032274792     0.9494633878
   16      H       3.1188863425     4.6667234074    -0.4531670703
   17      H       3.3929824551     0.7496835446    -1.9355434958
   18      N       0.9351365269     0.5834456803    -0.7916217190
   19      H       0.8101191226     0.4930600533    -1.7938109380
   20      C      -0.0038542687     0.0163352232     0.0077006941
   21      H      -0.7943445333    -0.4966638872    -0.5710147027
   22      O      -0.0116566703     0.0426221107     1.2351484437
 ----------------------------------------------------------------

 Frequency:        16.84                 102.81                 192.74
 Force Cnst:      0.0008                 0.0223                 0.0478
 Red. Mass:       4.8095                 3.5807                 2.1838
 IR Intens:        6.661                  5.016                 33.567
 Frequency:       214.17                 227.49                 334.17
 Force Cnst:      0.0966                 0.0545                 0.1247
 Red. Mass:       3.5742                 1.7860                 1.8954
 IR Intens:        9.011                  0.070                  0.182
 Frequency:       396.84                 404.64                 450.09
 Force Cnst:      0.3439                 0.3703                 0.2693
 Red. Mass:       3.7060                 3.8388                 2.2563
 IR Intens:       12.870                 16.465                  0.455
 Frequency:       460.72                 534.79                 564.76
 Force Cnst:      0.4367                 0.2734                 0.2145
 Red. Mass:       3.4920                 1.6226                 1.1413
 IR Intens:        5.772                  1.758                 49.303
 Frequency:       747.02                 800.70                 824.07
 Force Cnst:      1.3595                 0.5455                 0.9830
 Red. Mass:       4.1350                 1.4440                 2.4569
 IR Intens:        3.873                  0.092                  0.664
 Frequency:       850.57                 905.30                 920.09
 Force Cnst:      0.8618                 0.9294                 0.9764
 Red. Mass:       2.0219                 1.9246                 1.9576
 IR Intens:        0.889                  7.507                  0.513
 Frequency:       937.39                 968.30                1018.36
 Force Cnst:      0.7622                 1.3021                 0.9803
 Red. Mass:       1.4722                 2.3570                 1.6044
 IR Intens:        0.491                  3.467                  0.108
 Frequency:      1040.56                1070.76                1076.88
 Force Cnst:      1.1481                 0.9530                 2.4483
 Red. Mass:       1.7997                 1.4108                 3.5833
 IR Intens:        1.345                  1.273                  8.321
 Frequency:      1096.56                1103.83                1177.73
 Force Cnst:      0.8567                 1.7313                 1.8281
 Red. Mass:       1.2092                 2.4116                 2.2370
 IR Intens:        0.032                  1.319                  0.592
 Frequency:      1217.70                1223.51                1282.72
 Force Cnst:      1.2840                 1.6672                 1.2880
 Red. Mass:       1.4697                 1.8903                 1.3286
 IR Intens:        5.146                 73.380                 11.961
 Frequency:      1297.71                1300.37                1346.75
 Force Cnst:      1.2605                 1.3171                 1.3724
 Red. Mass:       1.2703                 1.3220                 1.2843
 IR Intens:        2.435                  5.209                  3.437
 Frequency:      1351.41                1378.62                1388.21
 Force Cnst:      1.3341                 1.5399                 1.5279
 Red. Mass:       1.2398                 1.3752                 1.3457
 IR Intens:       14.753                  0.928                  0.656
 Frequency:      1392.73                1394.84                1410.70
 Force Cnst:      1.6885                 1.6820                 1.7331
 Red. Mass:       1.4775                 1.4673                 1.4781
 IR Intens:        8.394                  0.477                  1.044
 Frequency:      1429.70                1504.67                1509.07
 Force Cnst:      1.4620                 1.4484                 1.4656
 Red. Mass:       1.2139                 1.0858                 1.0923
 IR Intens:       14.374                  0.339                  4.073
 Frequency:      1510.87                1515.80                1528.59
 Force Cnst:      1.4743                 1.4705                 1.5170
 Red. Mass:       1.0962                 1.0862                 1.1019
 IR Intens:        5.295                 13.196                  1.186
 Frequency:      1553.58                1758.45                2989.02
 Force Cnst:      2.5654                12.7661                 5.7174
 Red. Mass:       1.8040                 7.0073                 1.0862
 IR Intens:      188.500                423.840                110.085
 Frequency:      3006.24                3009.00                3017.84
 Force Cnst:      5.6989                 5.7157                 5.7133
 Red. Mass:       1.0703                 1.0715                 1.0647
 IR Intens:       21.370                 29.016                  8.826
 Frequency:      3021.16                3027.24                3065.23
 Force Cnst:      5.7317                 5.7316                 6.0616
 Red. Mass:       1.0658                 1.0615                 1.0950
 IR Intens:       41.755                 34.061                 75.335
 Frequency:      3067.82                3071.74                3072.43
 Force Cnst:      6.0705                 6.0824                 6.0906
 Red. Mass:       1.0947                 1.0941                 1.0951
 IR Intens:       58.797                 33.159                 34.857
 Frequency:      3075.44                3092.99                3586.41
 Force Cnst:      6.1147                 6.1489                 8.1685
 Red. Mass:       1.0973                 1.0909                 1.0779
 IR Intens:       39.180                 34.334                 21.886
 Frequency:        16.84                 102.11                 172.38
 Force Cnst:      0.0008                 0.0221                 0.0482
 Red. Mass:       4.8111                 3.6011                 2.7510
 IR Intens:        6.666                  4.897                 27.556
 Frequency:       213.57                 227.49                 334.00
 Force Cnst:      0.0981                 0.0544                 0.1251
 Red. Mass:       3.6512                 1.7858                 1.9041
 IR Intens:        7.962                  0.064                  0.163
 Frequency:       391.10                 399.26                 449.80
 Force Cnst:      0.3525                 0.3796                 0.2740
 Red. Mass:       3.9117                 4.0421                 2.2986
 IR Intens:       10.375                 11.545                  0.462
 Frequency:       457.95                 532.14                 552.33
 Force Cnst:      0.4072                 0.2708                 0.2035
 Red. Mass:       3.2952                 1.6232                 1.1319
 IR Intens:        1.791                  1.463                 63.283
 Frequency:       737.78                 800.69                 821.86
 Force Cnst:      1.3124                 0.5454                 0.9676
 Red. Mass:       4.0923                 1.4440                 2.4315
 IR Intens:        3.682                  0.090                  0.501
 Frequency:       849.49                 858.74                 905.38
 Force Cnst:      0.8758                 1.7655                 0.9254
 Red. Mass:       2.0599                 4.0634                 1.9161
 IR Intens:        1.056                  0.237                  7.456
 Frequency:       917.71                 937.46                 943.49
 Force Cnst:      1.0142                 0.7665                 1.1808
 Red. Mass:       2.0438                 1.4804                 2.2514
 IR Intens:        0.898                  0.574                  2.760
 Frequency:      1022.52                1041.06                1070.33
 Force Cnst:      1.3979                 1.1689                 0.9552
 Red. Mass:       2.2692                 1.8306                 1.4151
 IR Intens:        2.358                  0.964                  1.077
 Frequency:      1096.49                1103.45                1124.26
 Force Cnst:      0.8448                 1.7759                 2.4978
 Red. Mass:       1.1927                 2.4755                 3.3540
 IR Intens:        0.032                  1.181                 15.656
 Frequency:      1183.25                1217.63                1228.25
 Force Cnst:      2.0850                 1.2707                 1.9112
 Red. Mass:       2.5276                 1.4546                 2.1502
 IR Intens:        8.709                  0.489                 59.808
 Frequency:      1282.30                1297.68                1299.79
 Force Cnst:      1.2863                 1.2612                 1.3060
 Red. Mass:       1.3278                 1.2712                 1.3120
 IR Intens:       10.255                  2.418                  3.738
 Frequency:      1346.42                1350.46                1378.59
 Force Cnst:      1.3598                 1.3296                 1.5399
 Red. Mass:       1.2731                 1.2374                 1.3752
 IR Intens:        4.476                 11.183                  0.907
 Frequency:      1388.17                1392.73                1394.82
 Force Cnst:      1.5269                 1.6885                 1.6820
 Red. Mass:       1.3449                 1.4774                 1.4674
 IR Intens:        0.627                  8.386                  0.462
 Frequency:      1410.11                1504.67                1509.06
 Force Cnst:      1.7215                 1.4484                 1.4655
 Red. Mass:       1.4694                 1.0858                 1.0922
 IR Intens:        0.784                  0.341                  4.232
 Frequency:      1510.87                1515.77                1528.47
 Force Cnst:      1.4743                 1.4716                 1.5202
 Red. Mass:       1.0962                 1.0871                 1.1044
 IR Intens:        5.282                 13.158                  1.955
 Frequency:      1547.75                1736.88                2211.24
 Force Cnst:      2.4205                15.6965                 6.9742
 Red. Mass:       1.7150                 8.8310                 2.4209
 IR Intens:      155.796                462.174                 88.076
 Frequency:      3006.24                3009.00                3017.84
 Force Cnst:      5.6989                 5.7157                 5.7133
 Red. Mass:       1.0703                 1.0715                 1.0647
 IR Intens:       21.356                 29.909                  8.533
 Frequency:      3021.15                3027.23                3065.22
 Force Cnst:      5.7317                 5.7316                 6.0615
 Red. Mass:       1.0658                 1.0615                 1.0950
 IR Intens:       39.736                 34.009                 76.533
 Frequency:      3067.82                3071.73                3072.43
 Force Cnst:      6.0705                 6.0825                 6.0904
 Red. Mass:       1.0947                 1.0941                 1.0950
 IR Intens:       58.798                 33.105                 34.466
 Frequency:      3075.44                3092.96                3586.35
 Force Cnst:      6.1147                 6.1489                 8.1681
 Red. Mass:       1.0973                 1.0909                 1.0779
 IR Intens:       39.177                 35.452                 22.169

 STANDARD THERMODYNAMIC QUANTITIES AT   298.18 K  AND     1.00 ATM

   This Molecule has  0 Imaginary Frequencies
   Zero point vibrational energy:      122.125 kcal/mol

   Atom    1 Element C  Has Mass   12.00000
   Atom    2 Element C  Has Mass   12.00000
   Atom    3 Element C  Has Mass   12.00000
   Atom    4 Element C  Has Mass   12.00000
   Atom    5 Element C  Has Mass   12.00000
   Atom    6 Element C  Has Mass   12.00000
   Atom    7 Element H  Has Mass    1.00783
   Atom    8 Element H  Has Mass    1.00783
   Atom    9 Element H  Has Mass    1.00783
   Atom   10 Element H  Has Mass    1.00783
   Atom   11 Element H  Has Mass    1.00783
   Atom   12 Element H  Has Mass    1.00783
   Atom   13 Element H  Has Mass    1.00783
   Atom   14 Element H  Has Mass    1.00783
   Atom   15 Element H  Has Mass    1.00783
   Atom   16 Element H  Has Mass    1.00783
   Atom   17 Element H  Has Mass    1.00783
   Atom   18 Element N  Has Mass   14.00307
   Atom   19 Element H  Has Mass    1.00783
   Atom   20 Element C  Has Mass   12.00000
   Atom   21 Element H  Has Mass    2.01410
   Atom   22 Element O  Has Mass   15.99491
   Molecular Mass:   128.106042 amu
   Principal axes and moments of inertia in amu*Bohr^2:
                             1           2           3
    Eigenvalues --      542.63212  2015.48327  2214.14303
          X               0.82760    -0.52047     0.21022
          Y               0.53491     0.84479    -0.01425
          Z              -0.17017     0.12424     0.97755
   Rotational Symmetry Number is   1
   The Molecule is an Asymmetric Top
   Translational Enthalpy:        0.889 kcal/mol
   Rotational Enthalpy:           0.889 kcal/mol
   Vibrational Enthalpy:        125.971 kcal/mol
   gas constant (RT):             0.593 kcal/mol
   Translational Entropy:        40.457  cal/mol.K
   Rotational Entropy:           29.272  cal/mol.K
   Vibrational Entropy:          24.933  cal/mol.K

   Total Enthalpy:              128.341 kcal/mol
   Total Entropy:                94.663  cal/mol.K

 Total job time:  5046.24s(wall), 79843.73s(cpu)
        *  Thank you very much for using Q-Chem.  Have a nice day.  *
