 Q-Chem 5.2 (devel), Q-Chem, Inc., Pleasanton, CA (2019)
 Q-Chem 5.2.2 for Intel X86 EM64T Linux

User input:
--------------------------------------------------------------
$molecule
0 1
C      1.9839655798    2.8343873569   -0.6530035790
C      2.0889665948    1.3399289492   -0.2973932582
C      3.4017166944    0.7321441035   -0.8222227424
C      4.6254659785    1.5200300416   -0.3255741318
C      4.5210827926    3.0122209378   -0.6783481608
C      3.2094896156    3.6188525050   -0.1554554411
H      3.4653882129   -0.3186255299   -0.5134835234
H      2.0538505535    1.2303619181    0.7916336585
H      1.9041773336    2.9373830819   -1.7471760654
H      1.0604862058    3.2447823031   -0.2264495779
H      4.7056113531    1.4098609561    0.7662015896
H      5.5416784391    1.0893334561   -0.7496610014
H      5.3807748665    3.5587419877   -0.2692766409
H      4.5659637339    3.1311627355   -1.7719372538
H      3.2192612515    3.6121018079    0.9447339030
H      3.1260878858    4.6703627905   -0.4590864625
H      3.3863457527    0.7409636912   -1.9242196110
N      0.9315723625    0.5939302253   -0.7942938700
H      0.8024957372    0.5217251348   -1.7968919912
C      0.0000000000    0.0000000000    0.0000000000
H     -0.7899738588   -0.5065817117   -0.5873052394
O     -0.0000000000    0.0000000000    1.2238135054
$end

$rem
JOBTYPE  OPT
METHOD  B3LYP
BASIS  6-31+G(D)
SYMMETRY  FALSE
SYM_IGNORE  TRUE
MEM_TOTAL  8000
MEM_STATIC  2000
MAX_SUB_FILE_NUM  16000
BASIS_LIN_DEP_THRESH  6
THRESH  14
SCF_CONVERGENCE  9
GEN_SCFMAN  TRUE
SCF_GUESS  SAD
FD_MAT_VEC_PROD  FALSE
XC_GRID  000099000590
NL_GRID  1
MAX_SCF_CYCLES  200
GEOM_OPT_TOL_GRADIENT  100
GEOM_OPT_TOL_DISPLACEMENT  100
GEOM_OPT_TOL_ENERGY  10
SOLVENT_METHOD       PCM
$end

$PCM
THEORY                     CPCM
METHOD                     SWIG
SOLVER                     INVERSION
HPOINTS                    302
HEAVYPOINTS                302
$END

$SOLVENT
DIELECTRIC                 62.0
$END

--------------------------------------------------------------

   15    -404.6015871885      4.48e-10  Convergence criterion met
 Total energy in the final basis set =     -404.6015871885
   13    -404.6021252710      3.97e-10  Convergence criterion met
 Total energy in the final basis set =     -404.6021252710
   13    -404.6021948720      4.03e-10  Convergence criterion met
 Total energy in the final basis set =     -404.6021948720
   13    -404.6021746674      4.07e-10  Convergence criterion met
 Total energy in the final basis set =     -404.6021746674
   13    -404.6021990757      4.05e-10  Convergence criterion met
 Total energy in the final basis set =     -404.6021990757
   13    -404.6021991260      4.04e-10  Convergence criterion met
 Total energy in the final basis set =     -404.6021991260
 Final energy is   -404.602199126014
 **  OPTIMIZATION CONVERGED  **
 Total job time:  463.28s(wall), 6657.79s(cpu)
        *  Thank you very much for using Q-Chem.  Have a nice day.  *

User input: 2 of 2

                  Welcome to Q-Chem
     A Quantum Leap Into The Future Of Chemistry

 Q-Chem 5.2 (devel), Q-Chem, Inc., Pleasanton, CA (2019)

 Yihan Shao,  Zhengting Gan,  E. Epifanovsky,  A. T. B. Gilbert,  M. Wormit,
 J. Kussmann,  A. W. Lange,  A. Behn,  Jia Deng,  Xintian Feng,  D. Ghosh,
 M. Goldey,  P. R. Horn,  L. D. Jacobson,  I. Kaliman,  T. Kus,  A. Landau,
 Jie Liu,  E. I. Proynov,  R. M. Richard,  R. P. Steele,  E. J. Sundstrom,
 H. L. Woodcock III,  P. M. Zimmerman,  D. Zuev,  B. Alam,  B. Albrecht,
 E. Alguire,  S. A. Baeppler,  D. Barton,  Z. Benda,  Y. A. Bernard,
 E. J. Berquist,  K. B. Bravaya,  H. Burton,  K. Carter-Fenk,  D. Casanova,
 Chun-Min Chang,  Yunqing Chen,  A. Chien,  K. D. Closser,  M. P. Coons,
 S. Coriani,  S. Dasgupta,  A. L. Dempwolff,  M. Diedenhofen,  Hainam Do,
 R. G. Edgar,  Po-Tung Fang,  S. Faraji,  S. Fatehi,  Qingguo Feng,
 J. Fosso-Tande,  J. Gayvert,  Qinghui Ge,  A. Ghysels,  G. Gidofalvi,
 J. Gomes,  J. Gonthier,  A. Gunina,  D. Hait,  M. W. D. Hanson-Heine,
 P. H. P. Harbach,  A. W. Hauser,  M. F. Herbst,  J. E. Herr,
 E. G. Hohenstein,  Z. C. Holden,  Kerwin Hui,  B. C. Huynh,  T.-C. Jagau,
 Hyunjun Ji,  B. Kaduk,  K. Khistyaev,  Jaehoon Kim,  P. Klunzinger,  K. Koh,
 D. Kosenkov,  L. Koulias,  T. Kowalczyk,  C. M. Krauter,  A. Kunitsa,
 Ka Un Lao,  A. Laurent,  K. V. Lawler,  Joonho Lee,  D. Lefrancois,
 S. Lehtola,  D. S. Levine,  Yi-Pei Li,  You-Sheng Lin,  Fenglai Liu,
 Kuan-Yu Liu,  E. Livshits,  M. Loipersberger,  A. Luenser,  P. Manohar,
 E. Mansoor,  S. F. Manzer,  Shan-Ping Mao,  Yuezhi Mao,  N. Mardirossian,
 A. V. Marenich,  T. Markovich,  L. A. Martinez-Martinez,  S. A. Maurer,
 N. J. Mayhall,  S. C. McKenzie,  J.-M. Mewes,  P. Morgante,  A. F. Morrison,
 J. W. Mullinax,  K. Nanda,  T. S. Nguyen-Beck,  R. Olivares-Amaya,
 J. A. Parkhill,  S. K. Paul,  F. Pavosevic,  Zheng Pei,  T. M. Perrine,
 F. Plasser,  P. Pokhilko,  S. Prager,  A. Prociuk,  E. Ramos,  B. Rana,
 D. R. Rehn,  F. Rob,  M. Scheurer,  M. Schneider,  N. Sergueev,
 S. M. Sharada,  S. Sharma,  D. W. Small,  T. Stauch,  C. J. Stein,
 T. Stein,  Yu-Chuan Su,  S. P. Veccham,  Zhen Tao,  A. J. W. Thom,
 A. Tkatchenko,  T. Tsuchimochi,  N. M. Tubman,  L. Vogt,  M. L. Vidal,
 O. Vydrov,  M. A. Watson,  J. Wenzel,  M. de Wergifosse,  T. A. Wesolowski,
 A. White,  J. Witte,  A. Yamada,  Jun Yang,  K. Yao,  S. Yeganeh,
 S. R. Yost,  Zhi-Qiang You,  A. Zech,  Igor Ying Zhang,  Xing Zhang,
 Yan Zhao,  Ying Zhu,  B. R. Brooks,  G. K. L. Chan,  C. J. Cramer,
 M. S. Gordon,  W. J. Hehre,  A. Klamt,  M. W. Schmidt,  C. D. Sherrill,
 D. G. Truhlar,  A. Aspuru-Guzik,  R. Baer,  A. T. Bell,  N. A. Besley,
 Jeng-Da Chai,  A. E. DePrince, III,  R. A. DiStasio Jr.,  A. Dreuw,
 B. D. Dunietz,  T. R. Furlani,  Chao-Ping Hsu,  Yousung Jung,  Jing Kong,
 D. S. Lambrecht,  WanZhen Liang,  C. Ochsenfeld,  V. A. Rassolov,
 L. V. Slipchenko,  J. E. Subotnik,  T. Van Voorhis,  J. M. Herbert,
 A. I. Krylov,  P. M. W. Gill,  M. Head-Gordon

 Contributors to earlier versions of Q-Chem not listed above:
 R. D. Adamson,  B. Austin,  J. Baker,  G. J. O. Beran,  K. Brandhorst,
 S. T. Brown,  E. F. C. Byrd,  A. K. Chakraborty,  C.-L. Cheng,
 Siu Hung Chien,  D. M. Chipman,  D. L. Crittenden,  H. Dachsel,
 R. J. Doerksen,  A. D. Dutoi,  L. Fusti-Molnar,  W. A. Goddard III,
 A. Golubeva-Zadorozhnaya,  S. R. Gwaltney,  G. Hawkins,  A. Heyden,
 S. Hirata,  G. Kedziora,  F. J. Keil,  C. Kelley,  Jihan Kim,  R. A. King,
 R. Z. Khaliullin,  P. P. Korambath,  W. Kurlancheek,  A. M. Lee,  M. S. Lee,
 S. V. Levchenko,  Ching Yeh Lin,  D. Liotard,  R. C. Lochan,  I. Lotan,
 P. E. Maslen,  N. Nair,  D. P. O'Neill,  D. Neuhauser,  E. Neuscamman,
 C. M. Oana,  R. Olson,  B. Peters,  R. Peverati,  P. A. Pieniazek,
 Y. M. Rhee,  J. Ritchie,  M. A. Rohrdanz,  E. Rosta,  N. J. Russ,
 H. F. Schaefer III,  N. E. Schultz,  N. Shenvi,  A. C. Simmonett,  A. Sodt,
 D. Stuck,  K. S. Thanthiriwatte,  V. Vanovschi,  Tao Wang,  A. Warshel,
 C. F. Williams,  Q. Wu,  X. Xu,  W. Zhang

 Please cite Q-Chem as follows:
 Y. Shao et al., Mol. Phys. 113, 184-215 (2015)
 DOI: 10.1080/00268976.2014.952696

 Q-Chem 5.2.2 for Intel X86 EM64T Linux

 Parts of Q-Chem use Armadillo 9.800.1 (Horizon Scraper).
 http://arma.sourceforge.net/

 Q-Chem begins on Sun Aug  8 22:32:49 2021

Host: node028
0

     Scratch files written to /home/ymao90/scratch/CCX_CO_0_GLY_6220210808222504//
The previous job contains 0 fragments, simply inherited here
Symmetry turned off for PCM/SM12/SMD calculation

Checking the input file for inconsistencies... 	...done.

--------------------------------------------------------------
User input:
--------------------------------------------------------------

$molecule
read
$end

$rem
JOBTYPE  FREQ
METHOD  B3LYP
BASIS  6-31+G(D)
SYMMETRY  FALSE
SYM_IGNORE  TRUE
MEM_TOTAL  8000
MEM_STATIC  2000
MAX_SUB_FILE_NUM  16000
BASIS_LIN_DEP_THRESH  6
THRESH  14
SCF_CONVERGENCE  9
GEN_SCFMAN  TRUE
SCF_GUESS  READ
FD_MAT_VEC_PROD  FALSE
XC_GRID  000099000590
NL_GRID  1
MAX_SCF_CYCLES  200
ISOTOPES TRUE
SOLVENT_METHOD       PCM
$end

$PCM
THEORY                     CPCM
METHOD                     SWIG
SOLVER                     INVERSION
HPOINTS                    302
HEAVYPOINTS                302
$END

$SOLVENT
DIELECTRIC                 62.0
$END

$isotopes
1 0
1
 21 2.0141018
$end
--------------------------------------------------------------

             Standard Nuclear Orientation (Angstroms)
    I     Atom           X                Y                Z
 ----------------------------------------------------------------
    1      C       1.9832817593     2.8321378087    -0.6411521856
    2      C       2.0942627115     1.3402084801    -0.2772590027
    3      C       3.4021588168     0.7301869303    -0.8116681451
    4      C       4.6280597755     1.5225417766    -0.3277415079
    5      C       4.5190399470     3.0122341453    -0.6896298092
    6      C       3.2118823076     3.6198563050    -0.1566677572
    7      H       3.4714601473    -0.3188106859    -0.4967000474
    8      H       2.0704025523     1.2359398403     0.8122192446
    9      H       1.8956956156     2.9227302040    -1.7344500128
   10      H       1.0634650007     3.2457364833    -0.2083820087
   11      H       4.7158293161     1.4204752028     0.7644150153
   12      H       5.5400484145     1.0895618473    -0.7587287989
   13      H       5.3817611577     3.5619694031    -0.2907586479
   14      H       4.5503347068     3.1227742928    -1.7842341435
   15      H       3.2326951668     3.6164497579     0.9435847070
   16      H       3.1229149836     4.6691283288    -0.4666697221
   17      H       3.3715592561     0.7363049633    -1.9119163994
   18      N       0.9358139365     0.5948086012    -0.7811544571
   19      H       0.8198545008     0.5321922939    -1.7880354947
   20      C      -0.0045982158     0.0007591384    -0.0260578101
   21      H      -0.7829997375    -0.4952557278    -0.6284806024
   22      O      -0.0385150343    -0.0188626489     1.2140716923
 ----------------------------------------------------------------

   13    -404.6021991265      4.04e-10  Convergence criterion met
 Total energy in the final basis set =     -404.6021991265

                    Orbital Energies (a.u.)
 --------------------------------------------------------------

 Alpha MOs
 -- Occupied --
-19.1349 -14.3717 -10.2939 -10.2253 -10.1824 -10.1820 -10.1796 -10.1794
-10.1774  -1.0389  -0.9331  -0.8241  -0.7426  -0.7406  -0.6367  -0.6108
 -0.5917  -0.5630  -0.5263  -0.4837  -0.4607  -0.4416  -0.4371  -0.4193
 -0.4179  -0.3951  -0.3782  -0.3736  -0.3472  -0.3428  -0.3213  -0.3116
 -0.3091  -0.2711  -0.2609

          Ground-State Mulliken Net Atomic Charges

     Atom                 Charge (a.u.)
  ----------------------------------------
      1 C                    -0.269118
      2 C                    -0.431318
      3 C                    -0.289343
      4 C                    -0.453052
      5 C                    -0.381015
      6 C                    -0.456827
      7 H                     0.211203
      8 H                     0.226906
      9 H                     0.214826
     10 H                     0.210122
     11 H                     0.207525
     12 H                     0.203366
     13 H                     0.199306
     14 H                     0.203228
     15 H                     0.207424
     16 H                     0.203261
     17 H                     0.214834
     18 N                    -0.383385
     19 H                     0.453160
     20 C                     0.346315
     21 H                     0.185191
     22 O                    -0.622609
  ----------------------------------------
  Sum of atomic charges =     0.000000

                    Cartesian Multipole Moments
 -----------------------------------------------------------------
    Charge (ESU x 10^10)
                -0.0000
    Dipole Moment (Debye)
         X       2.2797      Y       1.4804      Z      -5.3917
       Tot       6.0382
    Quadrupole Moments (Debye-Ang)
        XX     -50.4689     XY       4.1811     YY     -54.2649
        XZ      -1.1438     YZ      -0.8324     ZZ     -57.4261

 Frequency:        -8.79                  94.23                 193.51
 Force Cnst:      0.0002                 0.0195                 0.0496
 Red. Mass:       4.7995                 3.7358                 2.2489
 IR Intens:       15.106                  9.844                 58.361
 Frequency:       208.36                 225.73                 333.44
 Force Cnst:      0.0893                 0.0536                 0.1234
 Red. Mass:       3.4911                 1.7858                 1.8845
 IR Intens:       12.998                  0.242                  0.124
 Frequency:       397.55                 409.42                 449.70
 Force Cnst:      0.3329                 0.3619                 0.2700
 Red. Mass:       3.5747                 3.6643                 2.2664
 IR Intens:       12.897                 31.168                  0.770
 Frequency:       464.48                 531.43                 605.51
 Force Cnst:      0.4725                 0.2680                 0.2478
 Red. Mass:       3.7171                 1.6107                 1.1470
 IR Intens:       12.526                  2.418                105.990
 Frequency:       744.25                 798.59                 821.13
 Force Cnst:      1.3744                 0.5414                 0.9668
 Red. Mass:       4.2114                 1.4408                 2.4337
 IR Intens:        6.075                  0.165                  0.887
 Frequency:       849.62                 901.53                 916.34
 Force Cnst:      0.8487                 0.8766                 0.9694
 Red. Mass:       1.9955                 1.8305                 1.9595
 IR Intens:        2.943                 17.161                  1.240
 Frequency:       935.56                 964.00                1027.69
 Force Cnst:      0.7790                 1.2857                 0.9885
 Red. Mass:       1.5105                 2.3482                 1.5885
 IR Intens:        0.523                  7.649                  0.022
 Frequency:      1035.59                1063.02                1069.40
 Force Cnst:      1.1126                 0.9243                 2.4897
 Red. Mass:       1.7609                 1.3883                 3.6950
 IR Intens:        2.765                  2.622                 22.639
 Frequency:      1091.28                1103.48                1174.26
 Force Cnst:      0.8083                 1.7841                 1.8963
 Red. Mass:       1.1520                 2.4868                 2.3342
 IR Intens:        0.009                  2.055                  6.970
 Frequency:      1209.88                1244.55                1274.63
 Force Cnst:      1.2792                 1.5833                 1.2629
 Red. Mass:       1.4832                 1.7350                 1.3193
 IR Intens:        1.556                 58.443                 16.938
 Frequency:      1287.41                1297.27                1341.94
 Force Cnst:      1.2338                 1.4021                 1.3614
 Red. Mass:       1.2634                 1.4141                 1.2831
 IR Intens:        2.680                 12.428                  1.863
 Frequency:      1344.17                1374.57                1382.33
 Force Cnst:      1.3082                 1.5423                 1.5678
 Red. Mass:       1.2289                 1.3854                 1.3925
 IR Intens:       13.046                  1.491                  0.461
 Frequency:      1384.25                1386.98                1404.54
 Force Cnst:      1.6561                 1.6898                 1.7183
 Red. Mass:       1.4670                 1.4909                 1.4784
 IR Intens:        0.091                 11.900                  0.756
 Frequency:      1425.93                1493.52                1495.85
 Force Cnst:      1.5068                 1.4301                 1.4332
 Red. Mass:       1.2578                 1.0882                 1.0872
 IR Intens:       76.136                  0.115                  5.649
 Frequency:      1498.96                1499.86                1511.88
 Force Cnst:      1.4545                 1.4493                 1.4826
 Red. Mass:       1.0987                 1.0935                 1.1009
 IR Intens:        7.723                 10.685                  0.422
 Frequency:      1563.01                1690.24                3014.17
 Force Cnst:      2.6982                 9.0484                 5.7224
 Red. Mass:       1.8745                 5.3756                 1.0690
 IR Intens:      332.922                809.125                 35.810
 Frequency:      3015.08                3018.52                3019.32
 Force Cnst:      5.7217                 5.7185                 5.7045
 Red. Mass:       1.0683                 1.0652                 1.0621
 IR Intens:       50.106                 10.600                 20.321
 Frequency:      3021.12                3035.72                3062.05
 Force Cnst:      5.7129                 5.8965                 6.0476
 Red. Mass:       1.0624                 1.0860                 1.0947
 IR Intens:      140.647                119.519                118.927
 Frequency:      3063.37                3066.96                3068.37
 Force Cnst:      6.0637                 6.0775                 6.0867
 Red. Mass:       1.0967                 1.0966                 1.0973
 IR Intens:      132.135                 77.989                104.397
 Frequency:      3070.20                3096.78                3577.61
 Force Cnst:      6.1127                 6.1469                 8.1332
 Red. Mass:       1.1006                 1.0879                 1.0785
 IR Intens:       47.033                 62.196                 69.540
 Frequency:        -8.77                  93.57                 173.33
 Force Cnst:      0.0002                 0.0194                 0.0498
 Red. Mass:       4.8081                 3.7563                 2.8122
 IR Intens:       15.080                  9.572                 48.180
 Frequency:       207.88                 225.71                 333.23
 Force Cnst:      0.0909                 0.0536                 0.1239
 Red. Mass:       3.5689                 1.7847                 1.8943
 IR Intens:       10.934                  0.138                  0.109
 Frequency:       392.59                 402.77                 449.49
 Force Cnst:      0.3321                 0.3816                 0.2727
 Red. Mass:       3.6569                 3.9922                 2.2906
 IR Intens:       12.111                 21.476                  0.798
 Frequency:       459.78                 528.89                 597.21
 Force Cnst:      0.4367                 0.2654                 0.2384
 Red. Mass:       3.5059                 1.6103                 1.1344
 IR Intens:        3.693                  1.980                127.384
 Frequency:       734.81                 798.59                 819.09
 Force Cnst:      1.3266                 0.5414                 0.9533
 Red. Mass:       4.1700                 1.4408                 2.4118
 IR Intens:        5.819                  0.163                  0.647
 Frequency:       848.60                 863.45                 901.58
 Force Cnst:      0.8608                 1.7709                 0.8737
 Red. Mass:       2.0288                 4.0315                 1.8243
 IR Intens:        3.461                  1.050                 16.938
 Frequency:       914.03                 935.65                 941.94
 Force Cnst:      1.0085                 0.7811                 1.1770
 Red. Mass:       2.0489                 1.5144                 2.2515
 IR Intens:        2.121                  0.646                  7.017
 Frequency:      1021.74                1036.03                1062.15
 Force Cnst:      1.4240                 1.1358                 0.9349
 Red. Mass:       2.3151                 1.7960                 1.4065
 IR Intens:        8.133                  1.876                  2.339
 Frequency:      1091.23                1103.00                1118.65
 Force Cnst:      0.8021                 1.8156                 2.4316
 Red. Mass:       1.1433                 2.5330                 3.2980
 IR Intens:        0.007                  1.840                 26.805
 Frequency:      1178.16                1209.38                1246.83
 Force Cnst:      2.0685                 1.2788                 1.8561
 Red. Mass:       2.5293                 1.4840                 2.0265
 IR Intens:       19.357                  1.333                 45.634
 Frequency:      1274.04                1287.40                1295.88
 Force Cnst:      1.2564                 1.2338                 1.3824
 Red. Mass:       1.3138                 1.2635                 1.3971
 IR Intens:       13.761                  2.651                  7.417
 Frequency:      1341.70                1343.26                1374.52
 Force Cnst:      1.3461                 1.3049                 1.5420
 Red. Mass:       1.2691                 1.2275                 1.3852
 IR Intens:        3.430                  9.203                  1.431
 Frequency:      1382.26                1384.25                1386.97
 Force Cnst:      1.5667                 1.6564                 1.6889
 Red. Mass:       1.3917                 1.4672                 1.4901
 IR Intens:        0.396                  0.090                 11.439
 Frequency:      1404.07                1493.52                1495.84
 Force Cnst:      1.7065                 1.4301                 1.4332
 Red. Mass:       1.4692                 1.0882                 1.0872
 IR Intens:        0.492                  0.117                  5.703
 Frequency:      1498.96                1499.86                1511.85
 Force Cnst:      1.4545                 1.4492                 1.4827
 Red. Mass:       1.0987                 1.0934                 1.1010
 IR Intens:        7.698                 10.500                  0.590
 Frequency:      1556.81                1666.86                2242.86
 Force Cnst:      2.5171                13.9158                 7.0955
 Red. Mass:       1.7627                 8.5007                 2.3940
 IR Intens:      271.895                925.461                 98.514
 Frequency:      3014.17                3015.08                3018.53
 Force Cnst:      5.7224                 5.7217                 5.7183
 Red. Mass:       1.0690                 1.0683                 1.0652
 IR Intens:       35.154                 50.169                 10.096
 Frequency:      3019.33                3021.12                3062.04
 Force Cnst:      5.7046                 5.7130                 6.0476
 Red. Mass:       1.0621                 1.0624                 1.0947
 IR Intens:       19.932                144.554                121.792
 Frequency:      3063.37                3066.96                3068.37
 Force Cnst:      6.0637                 6.0776                 6.0865
 Red. Mass:       1.0967                 1.0967                 1.0972
 IR Intens:      132.141                 77.795                102.711
 Frequency:      3070.20                3096.73                3577.56
 Force Cnst:      6.1127                 6.1468                 8.1328
 Red. Mass:       1.1006                 1.0879                 1.0785
 IR Intens:       47.011                 65.427                 70.220

 STANDARD THERMODYNAMIC QUANTITIES AT   298.18 K  AND     1.00 ATM

   This Molecule has  1 Imaginary Frequencies
   Zero point vibrational energy:      121.833 kcal/mol

   Atom    1 Element C  Has Mass   12.00000
   Atom    2 Element C  Has Mass   12.00000
   Atom    3 Element C  Has Mass   12.00000
   Atom    4 Element C  Has Mass   12.00000
   Atom    5 Element C  Has Mass   12.00000
   Atom    6 Element C  Has Mass   12.00000
   Atom    7 Element H  Has Mass    1.00783
   Atom    8 Element H  Has Mass    1.00783
   Atom    9 Element H  Has Mass    1.00783
   Atom   10 Element H  Has Mass    1.00783
   Atom   11 Element H  Has Mass    1.00783
   Atom   12 Element H  Has Mass    1.00783
   Atom   13 Element H  Has Mass    1.00783
   Atom   14 Element H  Has Mass    1.00783
   Atom   15 Element H  Has Mass    1.00783
   Atom   16 Element H  Has Mass    1.00783
   Atom   17 Element H  Has Mass    1.00783
   Atom   18 Element N  Has Mass   14.00307
   Atom   19 Element H  Has Mass    1.00783
   Atom   20 Element C  Has Mass   12.00000
   Atom   21 Element H  Has Mass    2.01410
   Atom   22 Element O  Has Mass   15.99491
   Molecular Mass:   128.106042 amu
   Principal axes and moments of inertia in amu*Bohr^2:
                             1           2           3
    Eigenvalues --      537.54605  2029.52735  2231.33144
          X               0.82508    -0.52902     0.19847
          Y               0.53968     0.84187     0.00045
          Z              -0.16732     0.10674     0.98011
   Rotational Symmetry Number is   1
   The Molecule is an Asymmetric Top
   Translational Enthalpy:        0.889 kcal/mol
   Rotational Enthalpy:           0.889 kcal/mol
   Vibrational Enthalpy:        125.115 kcal/mol
   gas constant (RT):             0.593 kcal/mol
   Translational Entropy:        40.457  cal/mol.K
   Rotational Entropy:           29.278  cal/mol.K
   Vibrational Entropy:          18.112  cal/mol.K

   Total Enthalpy:              127.485 kcal/mol
   Total Entropy:                87.846  cal/mol.K

 Total job time:  957.84s(wall), 13430.27s(cpu)
        *  Thank you very much for using Q-Chem.  Have a nice day.  *
