 Q-Chem 5.2 (devel), Q-Chem, Inc., Pleasanton, CA (2019)
 Q-Chem 5.2.2 for Intel X86 EM64T Linux

User input:
--------------------------------------------------------------
$molecule
0 1
C      1.9839655798    2.8343873569   -0.6530035790
C      2.0889665948    1.3399289492   -0.2973932582
C      3.4017166944    0.7321441035   -0.8222227424
C      4.6254659785    1.5200300416   -0.3255741318
C      4.5210827926    3.0122209378   -0.6783481608
C      3.2094896156    3.6188525050   -0.1554554411
H      3.4653882129   -0.3186255299   -0.5134835234
H      2.0538505535    1.2303619181    0.7916336585
H      1.9041773336    2.9373830819   -1.7471760654
H      1.0604862058    3.2447823031   -0.2264495779
H      4.7056113531    1.4098609561    0.7662015896
H      5.5416784391    1.0893334561   -0.7496610014
H      5.3807748665    3.5587419877   -0.2692766409
H      4.5659637339    3.1311627355   -1.7719372538
H      3.2192612515    3.6121018079    0.9447339030
H      3.1260878858    4.6703627905   -0.4590864625
H      3.3863457527    0.7409636912   -1.9242196110
N      0.9315723625    0.5939302253   -0.7942938700
H      0.8024957372    0.5217251348   -1.7968919912
C      0.0000000000    0.0000000000    0.0000000000
H     -0.7899738588   -0.5065817117   -0.5873052394
O     -0.0000000000    0.0000000000    1.2238135054
$end

$rem
JOBTYPE  OPT
METHOD  B3LYP
BASIS  6-31+G(D)
SYMMETRY  FALSE
SYM_IGNORE  TRUE
MEM_TOTAL  8000
MEM_STATIC  2000
MAX_SUB_FILE_NUM  16000
BASIS_LIN_DEP_THRESH  6
THRESH  14
SCF_CONVERGENCE  9
GEN_SCFMAN  TRUE
SCF_GUESS  SAD
FD_MAT_VEC_PROD  FALSE
XC_GRID  000099000590
NL_GRID  1
MAX_SCF_CYCLES  200
GEOM_OPT_TOL_GRADIENT  100
GEOM_OPT_TOL_DISPLACEMENT  100
GEOM_OPT_TOL_ENERGY  10
$end

$multipole_field
Z   0.019448
$end

--------------------------------------------------------------

   16    -404.6310944066      3.73e-10  Convergence criterion met
 Total energy in the final basis set =     -404.6310944066
   12    -404.6321314013      7.29e-10  Convergence criterion met
 Total energy in the final basis set =     -404.6321314013
   11    -404.6322386700      8.13e-10  Convergence criterion met
 Total energy in the final basis set =     -404.6322386700
   10    -404.6322412962      7.19e-10  Convergence criterion met
 Total energy in the final basis set =     -404.6322412962
    9    -404.6322413353      8.12e-10  Convergence criterion met
 Total energy in the final basis set =     -404.6322413353
    9    -404.6322414085      6.62e-10  Convergence criterion met
 Total energy in the final basis set =     -404.6322414085
 Final energy is   -404.632241408455
 **  OPTIMIZATION CONVERGED  **
 Total job time:  253.85s(wall), 3979.32s(cpu)
        *  Thank you very much for using Q-Chem.  Have a nice day.  *

User input: 2 of 2

                  Welcome to Q-Chem
     A Quantum Leap Into The Future Of Chemistry

 Q-Chem 5.2 (devel), Q-Chem, Inc., Pleasanton, CA (2019)

 Yihan Shao,  Zhengting Gan,  E. Epifanovsky,  A. T. B. Gilbert,  M. Wormit,
 J. Kussmann,  A. W. Lange,  A. Behn,  Jia Deng,  Xintian Feng,  D. Ghosh,
 M. Goldey,  P. R. Horn,  L. D. Jacobson,  I. Kaliman,  T. Kus,  A. Landau,
 Jie Liu,  E. I. Proynov,  R. M. Richard,  R. P. Steele,  E. J. Sundstrom,
 H. L. Woodcock III,  P. M. Zimmerman,  D. Zuev,  B. Alam,  B. Albrecht,
 E. Alguire,  S. A. Baeppler,  D. Barton,  Z. Benda,  Y. A. Bernard,
 E. J. Berquist,  K. B. Bravaya,  H. Burton,  K. Carter-Fenk,  D. Casanova,
 Chun-Min Chang,  Yunqing Chen,  A. Chien,  K. D. Closser,  M. P. Coons,
 S. Coriani,  S. Dasgupta,  A. L. Dempwolff,  M. Diedenhofen,  Hainam Do,
 R. G. Edgar,  Po-Tung Fang,  S. Faraji,  S. Fatehi,  Qingguo Feng,
 J. Fosso-Tande,  J. Gayvert,  Qinghui Ge,  A. Ghysels,  G. Gidofalvi,
 J. Gomes,  J. Gonthier,  A. Gunina,  D. Hait,  M. W. D. Hanson-Heine,
 P. H. P. Harbach,  A. W. Hauser,  M. F. Herbst,  J. E. Herr,
 E. G. Hohenstein,  Z. C. Holden,  Kerwin Hui,  B. C. Huynh,  T.-C. Jagau,
 Hyunjun Ji,  B. Kaduk,  K. Khistyaev,  Jaehoon Kim,  P. Klunzinger,  K. Koh,
 D. Kosenkov,  L. Koulias,  T. Kowalczyk,  C. M. Krauter,  A. Kunitsa,
 Ka Un Lao,  A. Laurent,  K. V. Lawler,  Joonho Lee,  D. Lefrancois,
 S. Lehtola,  D. S. Levine,  Yi-Pei Li,  You-Sheng Lin,  Fenglai Liu,
 Kuan-Yu Liu,  E. Livshits,  M. Loipersberger,  A. Luenser,  P. Manohar,
 E. Mansoor,  S. F. Manzer,  Shan-Ping Mao,  Yuezhi Mao,  N. Mardirossian,
 A. V. Marenich,  T. Markovich,  L. A. Martinez-Martinez,  S. A. Maurer,
 N. J. Mayhall,  S. C. McKenzie,  J.-M. Mewes,  P. Morgante,  A. F. Morrison,
 J. W. Mullinax,  K. Nanda,  T. S. Nguyen-Beck,  R. Olivares-Amaya,
 J. A. Parkhill,  S. K. Paul,  F. Pavosevic,  Zheng Pei,  T. M. Perrine,
 F. Plasser,  P. Pokhilko,  S. Prager,  A. Prociuk,  E. Ramos,  B. Rana,
 D. R. Rehn,  F. Rob,  M. Scheurer,  M. Schneider,  N. Sergueev,
 S. M. Sharada,  S. Sharma,  D. W. Small,  T. Stauch,  C. J. Stein,
 T. Stein,  Yu-Chuan Su,  S. P. Veccham,  Zhen Tao,  A. J. W. Thom,
 A. Tkatchenko,  T. Tsuchimochi,  N. M. Tubman,  L. Vogt,  M. L. Vidal,
 O. Vydrov,  M. A. Watson,  J. Wenzel,  M. de Wergifosse,  T. A. Wesolowski,
 A. White,  J. Witte,  A. Yamada,  Jun Yang,  K. Yao,  S. Yeganeh,
 S. R. Yost,  Zhi-Qiang You,  A. Zech,  Igor Ying Zhang,  Xing Zhang,
 Yan Zhao,  Ying Zhu,  B. R. Brooks,  G. K. L. Chan,  C. J. Cramer,
 M. S. Gordon,  W. J. Hehre,  A. Klamt,  M. W. Schmidt,  C. D. Sherrill,
 D. G. Truhlar,  A. Aspuru-Guzik,  R. Baer,  A. T. Bell,  N. A. Besley,
 Jeng-Da Chai,  A. E. DePrince, III,  R. A. DiStasio Jr.,  A. Dreuw,
 B. D. Dunietz,  T. R. Furlani,  Chao-Ping Hsu,  Yousung Jung,  Jing Kong,
 D. S. Lambrecht,  WanZhen Liang,  C. Ochsenfeld,  V. A. Rassolov,
 L. V. Slipchenko,  J. E. Subotnik,  T. Van Voorhis,  J. M. Herbert,
 A. I. Krylov,  P. M. W. Gill,  M. Head-Gordon

 Contributors to earlier versions of Q-Chem not listed above:
 R. D. Adamson,  B. Austin,  J. Baker,  G. J. O. Beran,  K. Brandhorst,
 S. T. Brown,  E. F. C. Byrd,  A. K. Chakraborty,  C.-L. Cheng,
 Siu Hung Chien,  D. M. Chipman,  D. L. Crittenden,  H. Dachsel,
 R. J. Doerksen,  A. D. Dutoi,  L. Fusti-Molnar,  W. A. Goddard III,
 A. Golubeva-Zadorozhnaya,  S. R. Gwaltney,  G. Hawkins,  A. Heyden,
 S. Hirata,  G. Kedziora,  F. J. Keil,  C. Kelley,  Jihan Kim,  R. A. King,
 R. Z. Khaliullin,  P. P. Korambath,  W. Kurlancheek,  A. M. Lee,  M. S. Lee,
 S. V. Levchenko,  Ching Yeh Lin,  D. Liotard,  R. C. Lochan,  I. Lotan,
 P. E. Maslen,  N. Nair,  D. P. O'Neill,  D. Neuhauser,  E. Neuscamman,
 C. M. Oana,  R. Olson,  B. Peters,  R. Peverati,  P. A. Pieniazek,
 Y. M. Rhee,  J. Ritchie,  M. A. Rohrdanz,  E. Rosta,  N. J. Russ,
 H. F. Schaefer III,  N. E. Schultz,  N. Shenvi,  A. C. Simmonett,  A. Sodt,
 D. Stuck,  K. S. Thanthiriwatte,  V. Vanovschi,  Tao Wang,  A. Warshel,
 C. F. Williams,  Q. Wu,  X. Xu,  W. Zhang

 Please cite Q-Chem as follows:
 Y. Shao et al., Mol. Phys. 113, 184-215 (2015)
 DOI: 10.1080/00268976.2014.952696

 Q-Chem 5.2.2 for Intel X86 EM64T Linux

 Parts of Q-Chem use Armadillo 9.800.1 (Horizon Scraper).
 http://arma.sourceforge.net/

 Q-Chem begins on Sun Mar  7 03:00:25 2021

Host: node028
0

     Scratch files written to /home/ymao90/scratch/CCX_CO_-10020210307025610//
The previous job contains 0 fragments, simply inherited here

Checking the input file for inconsistencies... 	...done.

--------------------------------------------------------------
User input:
--------------------------------------------------------------

$molecule
read
$end

$rem
JOBTYPE  FREQ
METHOD  B3LYP
BASIS  6-31+G(D)
SYMMETRY  FALSE
SYM_IGNORE  TRUE
MEM_TOTAL  8000
MEM_STATIC  2000
MAX_SUB_FILE_NUM  16000
BASIS_LIN_DEP_THRESH  6
THRESH  14
SCF_CONVERGENCE  9
GEN_SCFMAN  TRUE
SCF_GUESS  READ
FD_MAT_VEC_PROD  FALSE
XC_GRID  000099000590
IDERIV   1
NL_GRID  1
MAX_SCF_CYCLES  200
ISOTOPES TRUE
$end

$isotopes
1 0
1
 21 2.0141018
$end

$multipole_field
Z   0.019448
$end
--------------------------------------------------------------

    2    -404.6322414085      2.65e-10  Convergence criterion met
 Total energy in the final basis set =     -404.6322414085
 Total energy in the final basis set =     -404.6322418933
   10    -404.6322404578      2.28e-10  Convergence criterion met
 Total energy in the final basis set =     -404.6322404578
    9    -404.6322413826      9.41e-10  Convergence criterion met
 Total energy in the final basis set =     -404.6322413826
   10    -404.6322411704      3.11e-10  Convergence criterion met
 Total energy in the final basis set =     -404.6322411704
    9    -404.6322414616      6.83e-10  Convergence criterion met
 Total energy in the final basis set =     -404.6322414616
   10    -404.6322411767      3.23e-10  Convergence criterion met
 Total energy in the final basis set =     -404.6322411767
   10    -404.6322407724      5.21e-10  Convergence criterion met
 Total energy in the final basis set =     -404.6322407724
   11    -404.6322395418      1.31e-10  Convergence criterion met
 Total energy in the final basis set =     -404.6322395418

                    Orbital Energies (a.u.)
 --------------------------------------------------------------

 Alpha MOs
 -- Occupied --
-19.1325 -14.3670 -10.2905 -10.2234 -10.1862 -10.1828 -10.1763 -10.1739
-10.1734  -1.0340  -0.9280  -0.8223  -0.7394  -0.7386  -0.6331  -0.6085
 -0.5880  -0.5622  -0.5222  -0.4818  -0.4563  -0.4406  -0.4357  -0.4159
 -0.4136  -0.3931  -0.3762  -0.3699  -0.3417  -0.3413  -0.3196  -0.3107
 -0.3068  -0.2678  -0.2562

          Ground-State Mulliken Net Atomic Charges

     Atom                 Charge (a.u.)
  ----------------------------------------
      1 C                    -0.219659
      2 C                    -0.486484
      3 C                    -0.238893
      4 C                    -0.480568
      5 C                    -0.307126
      6 C                    -0.489036
      7 H                     0.201794
      8 H                     0.193351
      9 H                     0.263428
     10 H                     0.193666
     11 H                     0.139448
     12 H                     0.226658
     13 H                     0.173097
     14 H                     0.265477
     15 H                     0.137697
     16 H                     0.217343
     17 H                     0.264938
     18 N                    -0.377691
     19 H                     0.454118
     20 C                     0.303620
     21 H                     0.180415
     22 O                    -0.615594
  ----------------------------------------
  Sum of atomic charges =     0.000000

                    Cartesian Multipole Moments
 -----------------------------------------------------------------
    Charge (ESU x 10^10)
                 0.0000
    Dipole Moment (Debye)
         X       1.9505      Y       1.2030      Z      -8.1875
       Tot       8.5022
    Quadrupole Moments (Debye-Ang)
        XX     -50.6908     XY       3.8117     YY     -54.4199
        XZ     -10.3048     YZ      -6.7801     ZZ     -56.1095

             Standard Nuclear Orientation (Angstroms)
    I     Atom           X                Y                Z
 ----------------------------------------------------------------
    1      C       1.9833270997     2.8320292216    -0.7015701278
    2      C       2.0927763974     1.3417433635    -0.3309420547
    3      C       3.3997568956     0.7366688317    -0.8723917553
    4      C       4.6141747375     1.5082886221    -0.3264896997
    5      C       4.5234762264     3.0116583102    -0.6361845813
    6      C       3.1919641389     3.6121869659    -0.1553790792
    7      H       3.4593487058    -0.3251402849    -0.6016366872
    8      H       2.0849468104     1.2490450921     0.7626171523
    9      H       1.9438391325     2.9392716907    -1.7938332042
   10      H       1.0434116241     3.2432401840    -0.3108430622
   11      H       4.6673680823     1.3619606207     0.7705327934
   12      H       5.5361300523     1.0912185316    -0.7486556244
   13      H       5.3692557751     3.5459956410    -0.1796430546
   14      H       4.6169822409     3.1627883603    -1.7188823368
   15      H       3.1589222350     3.5929925376     0.9523496841
   16      H       3.1206886874     4.6641244506    -0.4584601997
   17      H       3.4043360569     0.7810966532    -1.9698467116
   18      N       0.9203638231     0.5848735015    -0.7777044963
   19      H       0.7670354535     0.4856174313    -1.7789140205
   20      C       0.0212293705     0.0161330832     0.0440729817
   21      H      -0.7823233982    -0.5031731241    -0.5026838911
   22      O       0.0473969378     0.0404470567     1.2890920813
 ----------------------------------------------------------------

 Frequency:        47.80                 108.65                 217.96
 Force Cnst:      0.0064                 0.0246                 0.0983
 Red. Mass:       4.7690                 3.5370                 3.5121
 IR Intens:        7.901                  5.361                 10.964
 Frequency:       228.34                 233.18                 333.35
 Force Cnst:      0.0688                 0.0613                 0.1254
 Red. Mass:       2.2402                 1.9121                 1.9155
 IR Intens:       18.763                  7.366                  0.582
 Frequency:       401.11                 419.76                 456.80
 Force Cnst:      0.3600                 0.3533                 0.2748
 Red. Mass:       3.7972                 3.4035                 2.2351
 IR Intens:        8.953                 13.478                  0.808
 Frequency:       468.63                 536.38                 666.65
 Force Cnst:      0.4559                 0.2759                 0.2970
 Red. Mass:       3.5232                 1.6279                 1.1344
 IR Intens:        7.167                  1.596                 67.216
 Frequency:       746.69                 802.62                 821.78
 Force Cnst:      1.3811                 0.5487                 0.9350
 Red. Mass:       4.2043                 1.4457                 2.3499
 IR Intens:        4.970                  0.008                  1.151
 Frequency:       845.50                 905.56                 920.62
 Force Cnst:      0.8655                 0.9612                 1.0047
 Red. Mass:       2.0550                 1.9895                 2.0119
 IR Intens:        0.848                  7.569                  1.032
 Frequency:       934.20                 967.35                1029.16
 Force Cnst:      0.7408                 1.2817                 0.9937
 Red. Mass:       1.4406                 2.3247                 1.5923
 IR Intens:        0.639                  1.825                  0.165
 Frequency:      1038.47                1073.15                1082.92
 Force Cnst:      1.1534                 0.9541                 2.6447
 Red. Mass:       1.8153                 1.4061                 3.8277
 IR Intens:        0.767                  0.916                 16.782
 Frequency:      1091.28                1100.86                1176.72
 Force Cnst:      0.8483                 1.7196                 1.9027
 Red. Mass:       1.2090                 2.4083                 2.3323
 IR Intens:        0.007                  1.179                  3.964
 Frequency:      1216.05                1246.82                1280.69
 Force Cnst:      1.2396                 1.6089                 1.2443
 Red. Mass:       1.4227                 1.7566                 1.2876
 IR Intens:        0.045                 32.774                  6.239
 Frequency:      1300.04                1302.96                1346.76
 Force Cnst:      1.2950                 1.3996                 1.3739
 Red. Mass:       1.3005                 1.3993                 1.2857
 IR Intens:        1.096                  5.061                  1.812
 Frequency:      1353.88                1371.71                1386.10
 Force Cnst:      1.3460                 1.5180                 1.6765
 Red. Mass:       1.2464                 1.3693                 1.4810
 IR Intens:       16.548                  2.003                 12.671
 Frequency:      1389.76                1398.71                1414.77
 Force Cnst:      1.5252                 1.6859                 1.7201
 Red. Mass:       1.3403                 1.4626                 1.4586
 IR Intens:        0.751                  0.166                  7.064
 Frequency:      1428.22                1501.53                1506.69
 Force Cnst:      1.4851                 1.4465                 1.4537
 Red. Mass:       1.2357                 1.0889                 1.0869
 IR Intens:       45.205                  0.439                  9.110
 Frequency:      1508.54                1512.08                1528.92
 Force Cnst:      1.4669                 1.4725                 1.5084
 Red. Mass:       1.0941                 1.0931                 1.0952
 IR Intens:        7.303                  9.447                  2.255
 Frequency:      1575.92                1702.52                2917.71
 Force Cnst:      2.6699                 9.7068                 5.3838
 Red. Mass:       1.8246                 5.6838                 1.0734
 IR Intens:      172.009                472.729                 32.519
 Frequency:      2926.70                3025.29                3041.04
 Force Cnst:      5.4160                 5.7650                 5.9199
 Red. Mass:       1.0732                 1.0691                 1.0865
 IR Intens:      195.572                 73.241                 58.077
 Frequency:      3041.84                3043.95                3047.56
 Force Cnst:      5.7930                 5.8694                 5.8572
 Red. Mass:       1.0626                 1.0751                 1.0704
 IR Intens:       34.308                 11.432                 21.991
 Frequency:      3071.83                3080.24                3084.31
 Force Cnst:      6.0415                 6.0847                 6.1912
 Red. Mass:       1.0867                 1.0885                 1.1046
 IR Intens:       45.853                 40.406                 12.259
 Frequency:      3087.53                3092.86                3551.31
 Force Cnst:      6.1658                 6.2007                 8.0202
 Red. Mass:       1.0978                 1.1002                 1.0793
 IR Intens:        4.187                 37.177                 70.727
 Frequency:        47.84                 107.87                 204.38
 Force Cnst:      0.0064                 0.0244                 0.0731
 Red. Mass:       4.7651                 3.5561                 2.9721
 IR Intens:        7.908                  5.265                 22.870
 Frequency:       219.24                 231.86                 333.17
 Force Cnst:      0.1014                 0.0567                 0.1258
 Red. Mass:       3.5793                 1.7916                 1.9239
 IR Intens:       10.134                  0.115                  0.544
 Frequency:       396.14                 409.89                 455.86
 Force Cnst:      0.3566                 0.3796                 0.2976
 Red. Mass:       3.8570                 3.8347                 2.4310
 IR Intens:        8.547                  9.559                  0.818
 Frequency:       461.96                 533.81                 662.50
 Force Cnst:      0.3825                 0.2730                 0.2914
 Red. Mass:       3.0420                 1.6262                 1.1268
 IR Intens:        1.593                  1.333                 74.929
 Frequency:       737.87                 802.62                 819.78
 Force Cnst:      1.3442                 0.5487                 0.9205
 Red. Mass:       4.1903                 1.4457                 2.3248
 IR Intens:        4.765                  0.007                  0.917
 Frequency:       844.62                 865.74                 905.62
 Force Cnst:      0.8781                 1.8008                 0.9573
 Red. Mass:       2.0892                 4.0779                 1.9812
 IR Intens:        1.060                  0.382                  7.490
 Frequency:       918.81                 934.30                 946.42
 Force Cnst:      1.0196                 0.7418                 1.2219
 Red. Mass:       2.0498                 1.4424                 2.3154
 IR Intens:        1.132                  0.652                  2.452
 Frequency:      1026.38                1039.57                1072.36
 Force Cnst:      1.3807                 1.2016                 0.9741
 Red. Mass:       2.2245                 1.8871                 1.4377
 IR Intens:        3.930                  0.878                  0.770
 Frequency:      1091.17                1100.41                1127.69
 Force Cnst:      0.8347                 1.7596                 2.5859
 Red. Mass:       1.1899                 2.4663                 3.4513
 IR Intens:        0.008                  0.999                 19.823
 Frequency:      1180.39                1215.60                1245.09
 Force Cnst:      2.0754                 1.2386                 1.8600
 Red. Mass:       2.5282                 1.4227                 2.0364
 IR Intens:       11.246                  0.068                 28.028
 Frequency:      1279.94                1299.96                1301.81
 Force Cnst:      1.2386                 1.2995                 1.3751
 Red. Mass:       1.2832                 1.3051                 1.3772
 IR Intens:        5.844                  1.131                  2.929
 Frequency:      1346.60                1352.44                1371.67
 Force Cnst:      1.3702                 1.3233                 1.5178
 Red. Mass:       1.2825                 1.2279                 1.3692
 IR Intens:        2.116                 15.606                  1.936
 Frequency:      1386.12                1389.69                1398.70
 Force Cnst:      1.6750                 1.5244                 1.6858
 Red. Mass:       1.4797                 1.3397                 1.4625
 IR Intens:       11.446                  0.706                  0.156
 Frequency:      1414.95                1501.53                1506.68
 Force Cnst:      1.7042                 1.4465                 1.4537
 Red. Mass:       1.4447                 1.0889                 1.0869
 IR Intens:        1.592                  0.444                  9.333
 Frequency:      1508.53                1512.06                1528.89
 Force Cnst:      1.4669                 1.4729                 1.5084
 Red. Mass:       1.0940                 1.0934                 1.0953
 IR Intens:        7.285                  9.131                  2.081
 Frequency:      1568.18                1680.17                2250.03
 Force Cnst:      2.4770                15.3892                 7.1755
 Red. Mass:       1.7095                 9.2526                 2.4056
 IR Intens:      132.620                546.034                 49.441
 Frequency:      2917.71                2926.70                3025.29
 Force Cnst:      5.3838                 5.4160                 5.7650
 Red. Mass:       1.0734                 1.0732                 1.0691
 IR Intens:       32.541                195.708                 72.447
 Frequency:      3041.78                3043.54                3047.48
 Force Cnst:      5.7890                 5.8667                 5.8516
 Red. Mass:       1.0619                 1.0749                 1.0694
 IR Intens:       25.147                 16.761                 30.674
 Frequency:      3071.83                3080.24                3084.31
 Force Cnst:      6.0415                 6.0847                 6.1912
 Red. Mass:       1.0867                 1.0885                 1.1046
 IR Intens:       46.073                 40.504                 12.264
 Frequency:      3087.53                3092.86                3551.27
 Force Cnst:      6.1659                 6.2007                 8.0198
 Red. Mass:       1.0978                 1.1002                 1.0793
 IR Intens:        4.071                 37.404                 71.262

 STANDARD THERMODYNAMIC QUANTITIES AT   298.18 K  AND     1.00 ATM

   This Molecule has  0 Imaginary Frequencies
   Zero point vibrational energy:      122.239 kcal/mol

   Atom    1 Element C  Has Mass   12.00000
   Atom    2 Element C  Has Mass   12.00000
   Atom    3 Element C  Has Mass   12.00000
   Atom    4 Element C  Has Mass   12.00000
   Atom    5 Element C  Has Mass   12.00000
   Atom    6 Element C  Has Mass   12.00000
   Atom    7 Element H  Has Mass    1.00783
   Atom    8 Element H  Has Mass    1.00783
   Atom    9 Element H  Has Mass    1.00783
   Atom   10 Element H  Has Mass    1.00783
   Atom   11 Element H  Has Mass    1.00783
   Atom   12 Element H  Has Mass    1.00783
   Atom   13 Element H  Has Mass    1.00783
   Atom   14 Element H  Has Mass    1.00783
   Atom   15 Element H  Has Mass    1.00783
   Atom   16 Element H  Has Mass    1.00783
   Atom   17 Element H  Has Mass    1.00783
   Atom   18 Element N  Has Mass   14.00307
   Atom   19 Element H  Has Mass    1.00783
   Atom   20 Element C  Has Mass   12.00000
   Atom   21 Element H  Has Mass    2.01410
   Atom   22 Element O  Has Mass   15.99491
   Molecular Mass:   128.106042 amu
   Principal axes and moments of inertia in amu*Bohr^2:
                             1           2           3
    Eigenvalues --      551.24369  2005.49415  2194.69639
          X               0.82381    -0.52585     0.21169
          Y               0.53825     0.84278    -0.00112
          Z              -0.17782     0.11486     0.97734
   Rotational Symmetry Number is   1
   The Molecule is an Asymmetric Top
   Translational Enthalpy:        0.889 kcal/mol
   Rotational Enthalpy:           0.889 kcal/mol
   Vibrational Enthalpy:        125.941 kcal/mol
   gas constant (RT):             0.593 kcal/mol
   Translational Entropy:        40.457  cal/mol.K
   Rotational Entropy:           29.274  cal/mol.K
   Vibrational Entropy:          22.082  cal/mol.K

   Total Enthalpy:              128.311 kcal/mol
   Total Entropy:                91.813  cal/mol.K

 Total job time:  5131.87s(wall), 81290.87s(cpu)
        *  Thank you very much for using Q-Chem.  Have a nice day.  *
